LAMMPS data file via write_data, version 31 Mar 2017, timestep = 150000

2352 atoms
1 atom types

-4.4238689501279183e-01 3.4762386895012391e+01 xlo xhi
-4.5256453477029979e-01 3.5128221702300088e+01 ylo yhi
-4.5875220834968644e-01 3.3151275308696867e+01 zlo zhi
0.0000000000000000e+00 0.0000000000000000e+00 0.0000000000000000e+00 xy xz yz

Masses

1 26.9815

Atoms # full

568 0 1 0.0000000000000000e+00 -3.0292638278190520e-01 6.4141550397206952e+00 3.0840583864805968e+01 0 0 0
2 0 1 0.0000000000000000e+00 9.1674681583190587e-01 2.1226602741415799e+00 -3.6912025376196878e-01 0 0 0
3 0 1 0.0000000000000000e+00 1.0387738928542152e+00 3.6017885468585780e+00 2.0211792449623340e+00 0 0 0
627 0 1 0.0000000000000000e+00 1.1411404115403750e+01 1.6679557311345523e+01 3.0813941002620496e+01 0 0 0
180 0 1 0.0000000000000000e+00 1.4424491319996552e+01 1.6493624854001677e+01 6.6173474659850671e+00 0 0 0
6 0 1 0.0000000000000000e+00 3.6366589634534563e+00 1.6281349321933392e+00 -4.1510576997571447e-01 0 0 0
7 0 1 0.0000000000000000e+00 3.8219882136926397e+00 3.5391056887516807e+00 2.0387815279505910e+00 0 0 0
8 0 1 0.0000000000000000e+00 2.4892525767823925e+00 1.0758170382763639e+00 1.8931359554847398e+00 0 0 0
347 0 1 0.0000000000000000e+00 4.1608175837298900e+00 1.7116517515567761e+01 1.4040243173039162e+01 0 0 0
10 0 1 0.0000000000000000e+00 6.7702487849395014e+00 2.5187272919050052e+00 3.3102272239460859e+01 0 0 -1
11 0 1 0.0000000000000000e+00 6.6211686318562597e+00 3.5870431635021749e+00 2.0123699605283223e+00 0 0 0
12 0 1 0.0000000000000000e+00 5.5532182641563752e+00 1.0074515680640543e+00 1.8928145824110709e+00 0 0 0
81 0 1 0.0000000000000000e+00 5.5735714426396763e+00 1.6391473228274297e+01 1.7460591449921310e+00 0 0 0
14 0 1 0.0000000000000000e+00 1.0009039178080627e+01 2.0815730166936994e+00 -1.2605309909786017e-01 0 0 0
15 0 1 0.0000000000000000e+00 9.8617177394842361e+00 3.4799364285380809e+00 2.0942781468840472e+00 0 0 0
16 0 1 0.0000000000000000e+00 8.3556728750090130e+00 6.4568557904676349e-01 1.5449192238766249e+00 0 0 0
260 0 1 0.0000000000000000e+00 7.1669109285061081e+00 1.7124440966294351e+01 8.8274968642056137e+00 0 0 0
18 0 1 0.0000000000000000e+00 1.3085073240274232e+01 2.1988084796984375e+00 -1.1922962888034411e-01 0 0 0
19 0 1 0.0000000000000000e+00 1.3086652726166298e+01 3.9808509598314892e+00 2.1129721564370447e+00 0 0 0
20 0 1 0.0000000000000000e+00 1.1489762408263193e+01 8.8727144399898750e-01 1.9645599673026211e+00 0 0 0
621 0 1 0.0000000000000000e+00 5.4290934355104721e+00 1.6571032365537846e+01 3.0955534623096504e+01 0 0 0
22 0 1 0.0000000000000000e+00 1.5724151176995420e+01 1.7387306713654400e+00 -3.5420623713044552e-02 0 0 0
23 0 1 0.0000000000000000e+00 1.5765310735558469e+01 3.6971085940479487e+00 1.5674155113280199e+00 0 0 0
24 0 1 0.0000000000000000e+00 1.4270428477815923e+01 1.4873354698616039e+00 2.3006555144058232e+00 0 0 0
628 0 1 0.0000000000000000e+00 1.4137587088238906e+01 1.4926837399211696e+01 2.8673693394854727e+01 0 0 0
26 0 1 0.0000000000000000e+00 1.2479020647218699e+00 6.9054733496610412e+00 3.3123183219862263e+01 0 0 -1
27 0 1 0.0000000000000000e+00 1.1045083654882641e+00 8.5406644194291292e+00 2.2868546673243162e+00 0 0 0
478 0 1 0.0000000000000000e+00 -2.8502359115440035e-01 6.6368602813156459e+00 2.5873628505044689e+01 0 0 0
29 0 1 0.0000000000000000e+00 2.5096993251417410e+00 4.3186891555822626e+00 -1.2604916670445260e-01 0 0 0
30 0 1 0.0000000000000000e+00 4.1306307305019949e+00 7.2125345411060513e+00 -4.1813924138238751e-01 0 0 0
31 0 1 0.0000000000000000e+00 3.9238969618218329e+00 8.5061948774998424e+00 1.8514242994657106e+00 0 0 0
32 0 1 0.0000000000000000e+00 2.7433709857917612e+00 6.0259518607492231e+00 1.9055598711132089e+00 0 0 0
33 0 1 0.0000000000000000e+00 4.9423917672912205e+00 4.4673636938773269e+00 -4.4258614235224641e-01 0 0 0
34 0 1 0.0000000000000000e+00 7.0411705759298622e+00 7.5091639420954213e+00 3.2857673433070410e+01 0 0 -1
35 0 1 0.0000000000000000e+00 6.9067062174134746e+00 8.6852077613993348e+00 1.9855963814879241e+00 0 0 0
36 0 1 0.0000000000000000e+00 5.7443005977362604e+00 6.3054684392975133e+00 1.6604246403788681e+00 0 0 0
37 0 1 0.0000000000000000e+00 8.0454378777018984e+00 4.9742309768582791e+00 -2.7015005940329151e-01 0 0 0
38 0 1 0.0000000000000000e+00 9.9806025739987838e+00 7.1363157608273280e+00 -3.8834195886820716e-01 0 0 0
39 0 1 0.0000000000000000e+00 1.0078100698613458e+01 9.3895839825407226e+00 2.5118019266309708e+00 0 0 0
40 0 1 0.0000000000000000e+00 8.6351146830833176e+00 6.4959621384199062e+00 2.0766518106933640e+00 0 0 0
41 0 1 0.0000000000000000e+00 1.1280901667494140e+01 4.4549599193481306e+00 -3.6574379221364040e-01 0 0 0
42 0 1 0.0000000000000000e+00 1.2750233575277253e+01 7.3884505005302419e+00 -1.2064777624435297e-01 0 0 0
43 0 1 0.0000000000000000e+00 1.2755928931662117e+01 8.7808421634763612e+00 2.3290194800263193e+00 0 0 0
44 0 1 0.0000000000000000e+00 1.1249966194570714e+01 6.1548882884749112e+00 2.0685152744583286e+00 0 0 0
45 0 1 0.0000000000000000e+00 1.3807450034783461e+01 4.7487213277621638e+00 3.3138526527935909e+01 0 0 -1
46 0 1 0.0000000000000000e+00 1.5549475129335796e+01 7.2402868725682419e+00 -4.4788151059870024e-01 0 0 0
47 0 1 0.0000000000000000e+00 1.5324108328460095e+01 9.1810742959092142e+00 2.1586102266142144e+00 0 0 0
48 0 1 0.0000000000000000e+00 1.3935675301947226e+01 6.5016014351158367e+00 2.1954766845836491e+00 0 0 0
450 0 1 0.0000000000000000e+00 1.4415544339915256e+01 1.6245683719460501e+01 2.1231347502651364e+01 0 0 0
50 0 1 0.0000000000000000e+00 1.1880075583066008e+00 1.1617000306631290e+01 -3.5118815164453798e-01 0 0 0
51 0 1 0.0000000000000000e+00 6.0940443543405287e-01 1.3375430341864540e+01 1.8637068314192016e+00 0 0 0
625 0 1 0.0000000000000000e+00 1.1268902957340309e+01 1.4725411540370528e+01 2.8503860481849845e+01 0 0 0
53 0 1 0.0000000000000000e+00 2.4617152936178366e+00 9.1838161633421560e+00 -3.2753049954696611e-01 0 0 0
54 0 1 0.0000000000000000e+00 3.7627285271959474e+00 1.2305522841198844e+01 3.3024756384480554e+01 0 0 -1
55 0 1 0.0000000000000000e+00 3.7621894457110079e+00 1.4034196751914262e+01 1.8979301093600212e+00 0 0 0
56 0 1 0.0000000000000000e+00 2.4048780539673911e+00 1.0783584316284749e+01 1.7209975253257395e+00 0 0 0
57 0 1 0.0000000000000000e+00 5.3552816446759763e+00 9.6111122886505846e+00 -4.0456151969297471e-01 0 0 0
58 0 1 0.0000000000000000e+00 6.6308222207270191e+00 1.2344332966196665e+01 -4.3434669160382189e-01 0 0 0
59 0 1 0.0000000000000000e+00 6.6098461431246847e+00 1.3790981380203270e+01 1.8919598785341392e+00 0 0 0
60 0 1 0.0000000000000000e+00 5.3146339322065543e+00 1.1336643523650048e+01 1.7733040071365460e+00 0 0 0
61 0 1 0.0000000000000000e+00 8.2704708898978421e+00 9.8137315086728520e+00 -4.0464664815869716e-01 0 0 0
62 0 1 0.0000000000000000e+00 9.3853679259026617e+00 1.2327733335645719e+01 -1.9566807094501953e-01 0 0 0
63 0 1 0.0000000000000000e+00 9.7221031488096674e+00 1.4151397454528199e+01 1.8727499454074579e+00 0 0 0
64 0 1 0.0000000000000000e+00 8.2683471171853000e+00 1.1094308959454812e+01 2.2271602784747011e+00 0 0 0
65 0 1 0.0000000000000000e+00 1.1123692363500577e+01 9.8870231137315248e+00 1.1880575480006039e-01 0 0 0
66 0 1 0.0000000000000000e+00 1.2743690356422983e+01 1.2458318112130472e+01 -2.9355660955732543e-01 0 0 0
67 0 1 0.0000000000000000e+00 1.2661131461584715e+01 1.4261049608514528e+01 2.0342047545983299e+00 0 0 0
68 0 1 0.0000000000000000e+00 1.1213477496348913e+01 1.1731609007713407e+01 2.0197172006776145e+00 0 0 0
69 0 1 0.0000000000000000e+00 1.3955015308744512e+01 9.7014107218629118e+00 -2.6035591100505234e-01 0 0 0
70 0 1 0.0000000000000000e+00 1.5560066462388281e+01 1.2054215339422122e+01 -2.6682544532614261e-02 0 0 0
71 0 1 0.0000000000000000e+00 1.5682255620667210e+01 1.3674312873942851e+01 2.1370526319612551e+00 0 0 0
72 0 1 0.0000000000000000e+00 1.4013073807292310e+01 1.1341932085053980e+01 2.1625916365499647e+00 0 0 0
624 0 1 0.0000000000000000e+00 8.0861141769587732e+00 1.6905775147403983e+01 3.1031846806621225e+01 0 0 0
75 0 1 0.0000000000000000e+00 -2.2591783226784345e-01 1.6204357739873956e+01 2.2190103546651567e+00 0 0 0
171 0 1 0.0000000000000000e+00 5.7028112861582674e+00 1.6459928802100634e+01 6.5220622521605751e+00 0 0 0
76 0 1 0.0000000000000000e+00 2.1147348918371240e+00 1.4613940032731348e+01 -3.3983475890337222e-01 0 0 0
536 0 1 0.0000000000000000e+00 1.2750852769865805e+01 1.7190668730088941e+01 2.3857553228022166e+01 0 0 0
475 0 1 0.0000000000000000e+00 -4.2324964623061156e-01 4.9003730418247207e+00 2.3558179720935563e+01 0 0 0
79 0 1 0.0000000000000000e+00 4.9762377634497232e+00 1.4508206575645557e+01 3.3071323405436921e+01 0 0 -1
540 0 1 0.0000000000000000e+00 1.4194054608450381e+01 1.6376130887714741e+01 2.6150254096557045e+01 0 0 0
1204 0 1 0.0000000000000000e+00 1.7086874464449515e+01 6.5691653182646412e+00 1.7014380194603862e+00 0 0 0
82 0 1 0.0000000000000000e+00 7.9254303958155603e+00 1.4682370624610131e+01 3.3116346879426466e+01 0 0 -1
351 0 1 0.0000000000000000e+00 5.4685124974384527e+00 1.6226356050514781e+01 1.6147824903509392e+01 0 0 0
84 0 1 0.0000000000000000e+00 8.1521091900893250e+00 1.6686528049895383e+01 2.1690007943348606e+00 0 0 0
85 0 1 0.0000000000000000e+00 1.1326954900861168e+01 1.4883314289918932e+01 -3.4920041386960937e-01 0 0 0
83 0 1 0.0000000000000000e+00 9.8269083295890969e+00 1.6956383879206403e+01 3.2941226740025535e+01 0 0 -1
614 0 1 0.0000000000000000e+00 1.2131176817379519e+00 1.7055516687282051e+01 2.8694347602178052e+01 0 0 0
88 0 1 0.0000000000000000e+00 1.4243546009676121e+01 1.4826206856711389e+01 3.3134580484352213e+01 0 0 -1
545 0 1 0.0000000000000000e+00 2.5882190056188312e+00 -2.6885862268888872e-01 2.8436590538353428e+01 0 0 0
523 0 1 0.0000000000000000e+00 -2.9138422288010668e-01 1.4897618336378304e+01 2.3463737650985880e+01 0 0 0
622 0 1 0.0000000000000000e+00 8.3326901979174330e+00 1.4723662313691406e+01 2.8029316526725342e+01 0 0 0
92 0 1 0.0000000000000000e+00 1.2519282825726887e+00 1.9984863073727608e+00 4.2846299508773837e+00 0 0 0
93 0 1 0.0000000000000000e+00 1.1623885330128993e+00 3.6246451214867905e+00 6.6884215692057776e+00 0 0 0
1720 0 1 0.0000000000000000e+00 1.6959218247331208e+01 1.3755717034923036e+00 3.0980317388774306e+01 0 0 0
525 0 1 0.0000000000000000e+00 -3.6494120948700842e-01 1.6621516350728481e+01 2.5966453684005081e+01 0 0 0
96 0 1 0.0000000000000000e+00 4.2560550318198809e+00 2.0047225415591892e+00 4.1145599145620926e+00 0 0 0
97 0 1 0.0000000000000000e+00 4.2176961405292506e+00 3.8293853281534647e+00 6.5653449719508954e+00 0 0 0
98 0 1 0.0000000000000000e+00 2.5015591703972735e+00 1.0758750221421780e+00 6.5365906767715574e+00 0 0 0
449 0 1 0.0000000000000000e+00 1.5618171467229406e+01 1.6945799622191146e+01 1.8830815965795509e+01 0 0 0
100 0 1 0.0000000000000000e+00 7.2890334158800902e+00 2.2189450495197582e+00 4.3973600546388827e+00 0 0 0
101 0 1 0.0000000000000000e+00 6.9178651717168984e+00 3.9703479713895078e+00 6.7957034605431534e+00 0 0 0
102 0 1 0.0000000000000000e+00 5.5201469926665681e+00 1.3782226445424957e+00 6.3624679424612713e+00 0 0 0
454 0 1 0.0000000000000000e+00 -3.4166439135388393e-01 1.3514561159082077e+00 2.6171952360487914e+01 0 0 0
104 0 1 0.0000000000000000e+00 1.0166938469392109e+01 2.0004841846816435e+00 4.2824425279304084e+00 0 0 0
105 0 1 0.0000000000000000e+00 9.8815831302088153e+00 3.5040042351103042e+00 6.6003260844470359e+00 0 0 0
106 0 1 0.0000000000000000e+00 8.3151355448942041e+00 1.2247772807180786e+00 6.7993074923369443e+00 0 0 0
1609 0 1 0.0000000000000000e+00 1.7108459826573036e+01 1.4403186282181252e+01 1.8671083241887157e+01 0 0 0
108 0 1 0.0000000000000000e+00 1.2760039978355952e+01 2.2052612733891133e+00 4.5230752881308716e+00 0 0 0
109 0 1 0.0000000000000000e+00 1.3051339696349878e+01 4.2477786702157800e+00 6.5200379126610182e+00 0 0 0
110 0 1 0.0000000000000000e+00 1.1358272131630846e+01 1.3852947054678502e+00 6.8788509605937920e+00 0 0 0
630 0 1 0.0000000000000000e+00 1.4347569694138954e+01 1.6614935254308204e+01 3.0809757812470036e+01 0 0 0
112 0 1 0.0000000000000000e+00 1.5999047083980752e+01 2.6230638575881065e+00 4.5717945093253096e+00 0 0 0
113 0 1 0.0000000000000000e+00 1.5662288533384348e+01 3.9196154245156558e+00 6.7621681009883687e+00 0 0 0
114 0 1 0.0000000000000000e+00 1.4216877974550410e+01 1.3114802950672109e+00 6.4376019864244807e+00 0 0 0
261 0 1 0.0000000000000000e+00 5.5766405530912406e+00 1.6430480416315604e+01 1.1618340743955466e+01 0 0 0
116 0 1 0.0000000000000000e+00 1.1926814394141669e+00 6.9500005750573104e+00 4.5199077040445985e+00 0 0 0
117 0 1 0.0000000000000000e+00 1.0135736802796163e+00 8.4934260957858232e+00 7.0126199340954471e+00 0 0 0
619 0 1 0.0000000000000000e+00 5.5837205422578133e+00 1.4422493319583916e+01 2.8396857581527964e+01 0 0 0
119 0 1 0.0000000000000000e+00 2.4474016200675410e+00 4.2891200360289954e+00 4.3725208308774777e+00 0 0 0
120 0 1 0.0000000000000000e+00 3.9868395016877436e+00 7.0665667856726451e+00 4.6626124625264680e+00 0 0 0
121 0 1 0.0000000000000000e+00 3.8311126351983571e+00 8.8600651707282800e+00 6.8420603394711419e+00 0 0 0
122 0 1 0.0000000000000000e+00 2.5145139725849592e+00 6.0984702780053128e+00 7.0933521213792199e+00 0 0 0
123 0 1 0.0000000000000000e+00 5.3788587784232131e+00 4.8878336361934069e+00 4.3896821439464606e+00 0 0 0
124 0 1 0.0000000000000000e+00 6.7525437823789538e+00 7.1368014987776442e+00 4.4472481089100722e+00 0 0 0
125 0 1 0.0000000000000000e+00 6.8702525680222468e+00 8.7780503039210771e+00 6.9098789340196216e+00 0 0 0
126 0 1 0.0000000000000000e+00 5.4353558865341824e+00 6.4843687230185161e+00 6.9209397666758719e+00 0 0 0
127 0 1 0.0000000000000000e+00 8.0771973413922158e+00 4.9771803540094917e+00 4.4775752993733082e+00 0 0 0
128 0 1 0.0000000000000000e+00 9.9146901661225773e+00 7.3063964056124897e+00 4.4699886459944862e+00 0 0 0
129 0 1 0.0000000000000000e+00 9.9897945407789592e+00 8.7983862789503835e+00 7.0350255543726981e+00 0 0 0
130 0 1 0.0000000000000000e+00 8.5050718700577335e+00 6.2871596836671939e+00 6.7195901414267745e+00 0 0 0
131 0 1 0.0000000000000000e+00 1.1335335948519646e+01 4.7174197861364284e+00 4.3382512700599190e+00 0 0 0
132 0 1 0.0000000000000000e+00 1.2668630717214402e+01 7.0063853251227410e+00 4.3428859043892301e+00 0 0 0
133 0 1 0.0000000000000000e+00 1.3027278490389399e+01 8.9682868673939673e+00 6.9320185460301991e+00 0 0 0
134 0 1 0.0000000000000000e+00 1.1442834481831690e+01 6.5303746452383500e+00 6.6877337559348629e+00 0 0 0
135 0 1 0.0000000000000000e+00 1.4528550539342840e+01 4.7649725509027343e+00 4.2562135532648311e+00 0 0 0
136 0 1 0.0000000000000000e+00 1.5745270778607029e+01 7.3882555335888087e+00 4.4670223951977492e+00 0 0 0
137 0 1 0.0000000000000000e+00 1.5914164149709979e+01 8.7677429009952430e+00 6.6331601138200940e+00 0 0 0
138 0 1 0.0000000000000000e+00 1.4286167875115842e+01 6.5293196490083529e+00 6.5409442185777413e+00 0 0 0
618 0 1 0.0000000000000000e+00 2.5842233984167429e+00 1.6390631257232688e+01 3.0693232403763123e+01 0 0 0
140 0 1 0.0000000000000000e+00 7.5415776420093339e-01 1.1942534573295402e+01 4.1945016776115995e+00 0 0 0
141 0 1 0.0000000000000000e+00 1.0593774036876475e+00 1.3832487836658204e+01 6.9101090150056006e+00 0 0 0
193 0 1 0.0000000000000000e+00 9.0514697833325091e+00 -2.5057209904617367e-01 9.4367641803760840e+00 0 0 0
143 0 1 0.0000000000000000e+00 2.2874296406816552e+00 9.5753524883436665e+00 4.6756500456565009e+00 0 0 0
144 0 1 0.0000000000000000e+00 3.8711374033589978e+00 1.2243138739200880e+01 3.9864772358292431e+00 0 0 0
145 0 1 0.0000000000000000e+00 3.9917319839669938e+00 1.3932335166923293e+01 6.6422143626563601e+00 0 0 0
146 0 1 0.0000000000000000e+00 2.3749418304057128e+00 1.1636904635803853e+01 6.8502258989304918e+00 0 0 0
147 0 1 0.0000000000000000e+00 5.3964654533985126e+00 9.6383613077249244e+00 4.2925287372401995e+00 0 0 0
148 0 1 0.0000000000000000e+00 6.9815255693046590e+00 1.2023567925976577e+01 4.3965747979351528e+00 0 0 0
149 0 1 0.0000000000000000e+00 6.7971214193183647e+00 1.4030380543176044e+01 6.7190946994333753e+00 0 0 0
150 0 1 0.0000000000000000e+00 5.7037609127244826e+00 1.1393262003184018e+01 6.6021109646112839e+00 0 0 0
151 0 1 0.0000000000000000e+00 8.1452817940502573e+00 9.7197442353149253e+00 4.6005599447869052e+00 0 0 0
152 0 1 0.0000000000000000e+00 9.7613915415819719e+00 1.2124091579388153e+01 4.1099333062441534e+00 0 0 0
153 0 1 0.0000000000000000e+00 9.6168121598318574e+00 1.3797678094602805e+01 6.9724179513439868e+00 0 0 0
154 0 1 0.0000000000000000e+00 8.4154082846332852e+00 1.1206357330924096e+01 7.1103768166356360e+00 0 0 0
155 0 1 0.0000000000000000e+00 1.1337916479890559e+01 9.9778525055664495e+00 4.7229068523235638e+00 0 0 0
156 0 1 0.0000000000000000e+00 1.2802645851471256e+01 1.2322084038524627e+01 4.5447858223201090e+00 0 0 0
157 0 1 0.0000000000000000e+00 1.2805736530794885e+01 1.3608623297314828e+01 6.7232755632144334e+00 0 0 0
158 0 1 0.0000000000000000e+00 1.1348319187345711e+01 1.1467725031898702e+01 6.9658619526992176e+00 0 0 0
159 0 1 0.0000000000000000e+00 1.4229827022809198e+01 9.6966770249073964e+00 4.6914101965836519e+00 0 0 0
160 0 1 0.0000000000000000e+00 1.5639546664292268e+01 1.2080068882441028e+01 4.6395822534085012e+00 0 0 0
161 0 1 0.0000000000000000e+00 1.5530456309587169e+01 1.4052815662275421e+01 6.6749005832572044e+00 0 0 0
162 0 1 0.0000000000000000e+00 1.4398043846543771e+01 1.1250329540095569e+01 6.9002036904106703e+00 0 0 0
616 0 1 0.0000000000000000e+00 2.3461948072165093e+00 1.4531415708280004e+01 2.8470569357245505e+01 0 0 0
617 0 1 0.0000000000000000e+00 3.9232921103755665e+00 1.7212384565335928e+01 2.8195503874831349e+01 0 0 0
574 0 1 0.0000000000000000e+00 7.0918748620661152e+00 7.0488675848857394e+00 2.7994309826507674e+01 0 0 0
166 0 1 0.0000000000000000e+00 2.3103008146876371e+00 1.4597656509497591e+01 4.1746972181376929e+00 0 0 0
573 0 1 0.0000000000000000e+00 5.8859649860829890e+00 4.5942768272265004e+00 2.8312363022398685e+01 0 0 0
168 0 1 0.0000000000000000e+00 2.5914940893527718e+00 1.6304906523204536e+01 6.8972872651246240e+00 0 0 0
169 0 1 0.0000000000000000e+00 5.3847826160651318e+00 1.4498206898260788e+01 4.2309832492520050e+00 0 0 0
229 0 1 0.0000000000000000e+00 -3.9887071640719129e-01 9.4394366535460339e+00 9.1473570224543259e+00 0 0 0
539 0 1 0.0000000000000000e+00 1.5590436912603991e+01 1.7058418123562685e+01 2.3530225655848408e+01 0 0 0
172 0 1 0.0000000000000000e+00 8.3597357330927835e+00 1.4277572908944220e+01 4.5750530308589319e+00 0 0 0
620 0 1 0.0000000000000000e+00 6.6542588535115179e+00 1.7174728006846475e+01 2.8458211334754054e+01 0 0 0
174 0 1 0.0000000000000000e+00 8.7209932196351829e+00 1.6232290980417410e+01 6.3959245774221616e+00 0 0 0
175 0 1 0.0000000000000000e+00 1.1032065494957347e+01 1.4943167358867637e+01 4.8974637888858084e+00 0 0 0
1249 0 1 0.0000000000000000e+00 1.6978508353462821e+01 1.4372356986488287e+01 -4.3756870602863290e-01 0 0 0
111 0 1 0.0000000000000000e+00 1.4352935118212804e+01 -2.4874020231731497e-01 4.2892778902830919e+00 0 0 0
178 0 1 0.0000000000000000e+00 1.3893768249652590e+01 1.4929042327253363e+01 4.5612317393969217e+00 0 0 0
572 0 1 0.0000000000000000e+00 2.5881483268046894e+00 6.3365778997515498e+00 3.0999562001074082e+01 0 0 0
267 0 1 0.0000000000000000e+00 1.1271120641299838e+01 1.6293012024370903e+01 1.1362341280778599e+01 0 0 0
612 0 1 0.0000000000000000e+00 1.4232119388815679e+01 1.1311142895115820e+01 3.1175243888913521e+01 0 0 0
182 0 1 0.0000000000000000e+00 6.3875326611534011e-01 2.2733702708303301e+00 9.1558975005458318e+00 0 0 0
183 0 1 0.0000000000000000e+00 1.1876162173069733e+00 3.9649553273964973e+00 1.1656205822995556e+01 0 0 0
611 0 1 0.0000000000000000e+00 1.5743787101907550e+01 1.3676092941952476e+01 3.1015005177528728e+01 0 0 0
1357 0 1 0.0000000000000000e+00 1.6851414303945820e+01 -4.4404398309514959e-01 9.4383234313977322e+00 0 0 0
186 0 1 0.0000000000000000e+00 3.8868176844826614e+00 2.1509787675719529e+00 8.8984929679215483e+00 0 0 0
187 0 1 0.0000000000000000e+00 4.1669903270411499e+00 3.7919111000281678e+00 1.1587006803733201e+01 0 0 0
188 0 1 0.0000000000000000e+00 2.4963816189293149e+00 1.2170729897936645e+00 1.1255275432473649e+01 0 0 0
365 0 1 0.0000000000000000e+00 2.2695158913761753e+00 -4.2522615720072821e-01 1.8460137174141305e+01 0 0 0
190 0 1 0.0000000000000000e+00 7.1884384599979780e+00 1.9328876253468472e+00 9.2906285273741336e+00 0 0 0
191 0 1 0.0000000000000000e+00 7.1952174936180597e+00 3.7594774959449859e+00 1.1270144476679702e+01 0 0 0
192 0 1 0.0000000000000000e+00 5.3646979018042238e+00 1.1290392114462646e+00 1.1282721596948136e+01 0 0 0
357 0 1 0.0000000000000000e+00 1.1424919895907617e+01 1.6837876028958629e+01 1.6289832859384969e+01 0 0 0
194 0 1 0.0000000000000000e+00 9.8512385799607696e+00 2.2665947592062747e+00 8.9287659479348935e+00 0 0 0
195 0 1 0.0000000000000000e+00 1.0004438936668858e+01 4.2230129778122345e+00 1.2110112113754671e+01 0 0 0
196 0 1 0.0000000000000000e+00 8.4412188040881730e+00 1.0073907945475842e+00 1.1704359325163855e+01 0 0 0
4 0 1 0.0000000000000000e+00 -3.0739031115285492e-01 1.0910520980343523e+00 1.9664241247484640e+00 0 0 0
198 0 1 0.0000000000000000e+00 1.3052890174468066e+01 1.9302729028881123e+00 9.1671556198444666e+00 0 0 0
199 0 1 0.0000000000000000e+00 1.2703769598346632e+01 3.8938139778799421e+00 1.1703951217450840e+01 0 0 0
200 0 1 0.0000000000000000e+00 1.1315914726853920e+01 1.3603066291907979e+00 1.1584175749917103e+01 0 0 0
353 0 1 0.0000000000000000e+00 9.7156907879309813e+00 1.7269460403648090e+01 1.3926898181858029e+01 0 0 0
202 0 1 0.0000000000000000e+00 1.5670242194852253e+01 2.1364939161773169e+00 9.1332267776256675e+00 0 0 0
203 0 1 0.0000000000000000e+00 1.5817455419244549e+01 3.5915424996461773e+00 1.1618068207086399e+01 0 0 0
204 0 1 0.0000000000000000e+00 1.4384245996520345e+01 1.2527284265929612e+00 1.1545990944514998e+01 0 0 0
610 0 1 0.0000000000000000e+00 1.5230222048248919e+01 1.2372937002713110e+01 2.8508632093939759e+01 0 0 0
206 0 1 0.0000000000000000e+00 1.2646459318651726e+00 6.9254393248829080e+00 9.4299676561293815e+00 0 0 0
207 0 1 0.0000000000000000e+00 1.3559298777075743e+00 8.7271219309904318e+00 1.1547505891992293e+01 0 0 0
609 0 1 0.0000000000000000e+00 1.4355458168238819e+01 9.6462681487803863e+00 2.8805958705628409e+01 0 0 0
209 0 1 0.0000000000000000e+00 2.8651414432812268e+00 4.5077638978011541e+00 9.3723340287169368e+00 0 0 0
210 0 1 0.0000000000000000e+00 4.0854422709328917e+00 7.1768734515363102e+00 9.2953088164461590e+00 0 0 0
211 0 1 0.0000000000000000e+00 4.1609415485801700e+00 8.8494839693066414e+00 1.1563030538884972e+01 0 0 0
212 0 1 0.0000000000000000e+00 2.6231466085388275e+00 6.1223181909171878e+00 1.1617705230768220e+01 0 0 0
213 0 1 0.0000000000000000e+00 5.5932952108056533e+00 4.7416147432836491e+00 9.2288732137815135e+00 0 0 0
214 0 1 0.0000000000000000e+00 6.8655299051740561e+00 7.4164939401680501e+00 9.3659670995369808e+00 0 0 0
215 0 1 0.0000000000000000e+00 6.8960911910110516e+00 9.0601044704578104e+00 1.1548759919355653e+01 0 0 0
216 0 1 0.0000000000000000e+00 5.3687988931352839e+00 6.3853758005935104e+00 1.1886337153643048e+01 0 0 0
217 0 1 0.0000000000000000e+00 8.1985827068365573e+00 4.8596291810316705e+00 8.9605185379674968e+00 0 0 0
218 0 1 0.0000000000000000e+00 9.9634935223386005e+00 6.9753853701660118e+00 9.2233789033634270e+00 0 0 0
219 0 1 0.0000000000000000e+00 1.0024070304093508e+01 8.8514293542529625e+00 1.1710162566789656e+01 0 0 0
220 0 1 0.0000000000000000e+00 8.3091270890393112e+00 6.7361194326803018e+00 1.1437567546079400e+01 0 0 0
221 0 1 0.0000000000000000e+00 1.1143528789439564e+01 4.7118325819174851e+00 9.5906141782504548e+00 0 0 0
222 0 1 0.0000000000000000e+00 1.3021596958318016e+01 7.0632573536522028e+00 9.1471310618643695e+00 0 0 0
223 0 1 0.0000000000000000e+00 1.2734893183815117e+01 8.8592250282846585e+00 1.1466238825715530e+01 0 0 0
224 0 1 0.0000000000000000e+00 1.1433514010944020e+01 6.6524506731069799e+00 1.1872625252550957e+01 0 0 0
225 0 1 0.0000000000000000e+00 1.4387254258883901e+01 4.6481046123769296e+00 9.1106991425750987e+00 0 0 0
226 0 1 0.0000000000000000e+00 1.5745102601028659e+01 7.3845615704871248e+00 9.1440701811626557e+00 0 0 0
227 0 1 0.0000000000000000e+00 1.5523317771299990e+01 8.9842320450763022e+00 1.1781131722350748e+01 0 0 0
228 0 1 0.0000000000000000e+00 1.4168807052235078e+01 6.0688256026789391e+00 1.1490421940866643e+01 0 0 0
608 0 1 0.0000000000000000e+00 1.0945227357219887e+01 1.1123418039050947e+01 3.1307263387679743e+01 0 0 0
230 0 1 0.0000000000000000e+00 8.8819009197310295e-01 1.2094488902948260e+01 9.1398846811353671e+00 0 0 0
231 0 1 0.0000000000000000e+00 1.1815357914659605e+00 1.4100547268207947e+01 1.1471270208278643e+01 0 0 0
607 0 1 0.0000000000000000e+00 1.2570292676476546e+01 1.3558832627966799e+01 3.0717621328926604e+01 0 0 0
233 0 1 0.0000000000000000e+00 2.4452137759837340e+00 9.5859331460673918e+00 9.0924069915592032e+00 0 0 0
234 0 1 0.0000000000000000e+00 4.0171761481030073e+00 1.2223758715129581e+01 9.0976284221089454e+00 0 0 0
235 0 1 0.0000000000000000e+00 4.3038051505421366e+00 1.3946206502110329e+01 1.1541960464693622e+01 0 0 0
236 0 1 0.0000000000000000e+00 2.9770214916448707e+00 1.1465687431996452e+01 1.1300096882595478e+01 0 0 0
237 0 1 0.0000000000000000e+00 5.0225263303475218e+00 9.6400708356097091e+00 9.0919817366894282e+00 0 0 0
238 0 1 0.0000000000000000e+00 7.2350007307002597e+00 1.1974825124486895e+01 9.6960003009905993e+00 0 0 0
239 0 1 0.0000000000000000e+00 7.1333764329672045e+00 1.4231328866390447e+01 1.1991830545453409e+01 0 0 0
240 0 1 0.0000000000000000e+00 5.6717198926641537e+00 1.1610945109201250e+01 1.1625957555110734e+01 0 0 0
241 0 1 0.0000000000000000e+00 8.8182070214549810e+00 9.5981078298147686e+00 9.3165623758071572e+00 0 0 0
242 0 1 0.0000000000000000e+00 9.9349529710557700e+00 1.2418057376080688e+01 9.4822996637446408e+00 0 0 0
243 0 1 0.0000000000000000e+00 1.0010077145364637e+01 1.4087775512189907e+01 1.1864888077582497e+01 0 0 0
244 0 1 0.0000000000000000e+00 8.5804050892471952e+00 1.1649829847193260e+01 1.1853765581975162e+01 0 0 0
245 0 1 0.0000000000000000e+00 1.1306583298773514e+01 9.6806205316757534e+00 9.1262956953304002e+00 0 0 0
246 0 1 0.0000000000000000e+00 1.3271379256014029e+01 1.2185339553540315e+01 9.1619574128454317e+00 0 0 0
247 0 1 0.0000000000000000e+00 1.3067372338585779e+01 1.4010061040150807e+01 1.1742799985387665e+01 0 0 0
248 0 1 0.0000000000000000e+00 1.1466151872544835e+01 1.1551211537261366e+01 1.1563079258027582e+01 0 0 0
249 0 1 0.0000000000000000e+00 1.4299098477321975e+01 9.8012521326516016e+00 9.3282970526947029e+00 0 0 0
250 0 1 0.0000000000000000e+00 1.6071769694565646e+01 1.2242045510638622e+01 9.3868521606679458e+00 0 0 0
251 0 1 0.0000000000000000e+00 1.6152509390309390e+01 1.4278845441712201e+01 1.1552158653669116e+01 0 0 0
252 0 1 0.0000000000000000e+00 1.4603566213587007e+01 1.1526704671630183e+01 1.1954281035815951e+01 0 0 0
606 0 1 0.0000000000000000e+00 1.2534845952474692e+01 1.1943349892190620e+01 2.8527699677623104e+01 0 0 0
571 0 1 0.0000000000000000e+00 4.2339950875877319e+00 8.4816494235270827e+00 3.0783437457398406e+01 0 0 0
605 0 1 0.0000000000000000e+00 1.1049364381803557e+01 9.6312384849176205e+00 2.8898421822503199e+01 0 0 0
256 0 1 0.0000000000000000e+00 2.4469075430954685e+00 1.4391806809816053e+01 8.9918811352147152e+00 0 0 0
570 0 1 0.0000000000000000e+00 4.3440163495626001e+00 7.1375708009091943e+00 2.8028300244791559e+01 0 0 0
181 0 1 0.0000000000000000e+00 -5.4290509082206284e-02 -6.9257693673452747e-02 9.0113833867468269e+00 0 0 0
259 0 1 0.0000000000000000e+00 5.7064708254110226e+00 1.4459311508622898e+01 9.3196775038473234e+00 0 0 0
1341 0 1 0.0000000000000000e+00 1.7057492908692772e+01 1.6414168419774608e+01 6.1951640277937132e+00 0 0 0
533 0 1 0.0000000000000000e+00 9.8150603110371488e+00 1.7202965739506809e+01 2.3430212850738325e+01 0 0 0
262 0 1 0.0000000000000000e+00 8.3954970067369796e+00 1.4624887153640371e+01 9.2737961012336658e+00 0 0 0
569 0 1 0.0000000000000000e+00 2.8354858267272331e+00 4.7627578700558537e+00 2.8585022275389001e+01 0 0 0
264 0 1 0.0000000000000000e+00 8.4138746576784698e+00 1.6557104007854800e+01 1.1315643762372732e+01 0 0 0
265 0 1 0.0000000000000000e+00 1.1426745921442119e+01 1.4615934224928697e+01 9.2955869569108973e+00 0 0 0
385 0 1 0.0000000000000000e+00 -2.3834084838587499e-01 4.9293406531027664e+00 1.9051066869564728e+01 0 0 0
279 0 1 0.0000000000000000e+00 5.4599085640279919e+00 -1.1009249502725726e-01 1.3689177533388561e+01 0 0 0
268 0 1 0.0000000000000000e+00 1.4025818998375144e+01 1.4732051781942189e+01 9.1988144882919141e+00 0 0 0
575 0 1 0.0000000000000000e+00 6.8877800710531103e+00 9.0312923802799485e+00 3.0675685254394704e+01 0 0 0
270 0 1 0.0000000000000000e+00 1.4225855406278960e+01 1.6398859354803754e+01 1.1783074838132212e+01 0 0 0
604 0 1 0.0000000000000000e+00 8.2577795890561099e+00 1.1652367236599190e+01 3.0812625282941053e+01 0 0 0
272 0 1 0.0000000000000000e+00 1.0885750098626310e+00 2.3402859146121644e+00 1.3801679094782772e+01 0 0 0
273 0 1 0.0000000000000000e+00 1.2593554450800855e+00 3.7729375283924984e+00 1.6392992552025689e+01 0 0 0
603 0 1 0.0000000000000000e+00 9.7324597745458448e+00 1.4571821373686559e+01 3.0886135614522484e+01 0 0 0
1791 0 1 0.0000000000000000e+00 1.7085961795739848e+01 1.6379289755506512e+01 3.0631899881329389e+01 0 0 0
276 0 1 0.0000000000000000e+00 3.9338136931321941e+00 2.2278634587481907e+00 1.3641039716549306e+01 0 0 0
277 0 1 0.0000000000000000e+00 4.2902908744397354e+00 3.7451004664704088e+00 1.6279737238364785e+01 0 0 0
278 0 1 0.0000000000000000e+00 2.7751560344946955e+00 1.2251032176791419e+00 1.6295225905498242e+01 0 0 0
287 0 1 0.0000000000000000e+00 1.1405644363260212e+01 -3.1208944214338774e-01 1.4066393158784493e+01 0 0 0