LAMMPS data file via write_data, version 31 Mar 2017, timestep = 150000

2048 atoms
1 atom types

-4.4195000631700765e-01 3.2761950006318258e+01 xlo xhi
-4.4195000631700765e-01 3.2761950006318258e+01 ylo yhi
-4.4195000631700765e-01 3.2761950006318258e+01 zlo zhi
0.0000000000000000e+00 0.0000000000000000e+00 0.0000000000000000e+00 xy xz yz

Masses

1 26.9815

Atoms # full

512 0 1 0.0000000000000000e+00 2.9033791262864028e+01 1.4386104210174414e+01 1.4262492412764068e+01 0 0 0
17 0 1 0.0000000000000000e+00 1.6270099330772730e+01 -2.6165686933962762e-01 -1.8009372256169121e-01 0 0 0
511 0 1 0.0000000000000000e+00 3.0664330184295956e+01 1.1797841866363612e+01 1.3610009542555822e+01 0 0 0
4 0 1 0.0000000000000000e+00 3.2701735691835275e+01 1.5488140501912693e+00 1.9596336519968096e+00 -1 0 0
1421 0 1 0.0000000000000000e+00 1.1993373826977173e+01 1.6111047473232269e+01 1.1872554260847604e+01 0 0 0
19 0 1 0.0000000000000000e+00 1.8221774586023226e+01 -3.4554660800950754e-01 1.7958511448619787e+00 0 0 0
593 0 1 0.0000000000000000e+00 1.6201893702268229e+01 7.6918021336931162e+00 1.5689373250461845e+01 0 0 0
8 0 1 0.0000000000000000e+00 3.5617126142018067e+00 1.8338839056226601e+00 1.6816474582759375e+00 0 0 0
510 0 1 0.0000000000000000e+00 3.0678347409322640e+01 1.4129324252543441e+01 1.1992685786522623e+01 0 0 0
159 0 1 0.0000000000000000e+00 3.0760263795744606e+01 -4.2968329788603077e-01 6.0819691477196427e+00 0 0 0
509 0 1 0.0000000000000000e+00 2.8442564653253285e+01 1.1993186581153848e+01 1.2152689372011356e+01 0 0 0
12 0 1 0.0000000000000000e+00 8.1942739685968480e+00 1.6282281669764731e+00 1.9190565780653284e+00 0 0 0
508 0 1 0.0000000000000000e+00 2.4589087297415343e+01 1.3993387597693047e+01 1.4068191080498499e+01 0 0 0
634 0 1 0.0000000000000000e+00 2.6430587783132651e+01 1.4469077250917895e+01 1.6023493699523669e+01 0 0 0
1417 0 1 0.0000000000000000e+00 7.7307223908666760e+00 1.5913253304373345e+01 1.1811860012971215e+01 0 0 0
16 0 1 0.0000000000000000e+00 1.2206065811258632e+01 1.5932530449534297e+00 2.1576105182910359e+00 0 0 0
507 0 1 0.0000000000000000e+00 2.6416149762193808e+01 1.1887743237534663e+01 1.4222485872157439e+01 0 0 0
1051 0 1 0.0000000000000000e+00 2.6722139650666467e+01 1.5894387582362448e+01 1.8730754622711521e+00 0 0 0
522 0 1 0.0000000000000000e+00 9.9792372686854076e+00 2.0103866935402266e+00 1.6055360360146921e+01 0 0 0
20 0 1 0.0000000000000000e+00 1.6210808489661222e+01 1.9866363241407750e+00 1.4949198050615125e+00 0 0 0
114 0 1 0.0000000000000000e+00 1.8448364285118970e+01 1.4060721379144374e+01 -2.6699599132530355e-01 0 0 0
11 0 1 0.0000000000000000e+00 1.0336775425070252e+01 -3.4342108286124107e-01 1.5781658341646367e+00 0 0 0
1165 0 1 0.0000000000000000e+00 1.2319807400667147e+01 1.6151699329136388e+01 3.8013782513725429e+00 0 0 0
24 0 1 0.0000000000000000e+00 2.0271403922401969e+01 1.6208108001616313e+00 1.5733938304118342e+00 0 0 0
506 0 1 0.0000000000000000e+00 2.6477646053980077e+01 1.4149260151994527e+01 1.2123075639066876e+01 0 0 0
617 0 1 0.0000000000000000e+00 7.9196854734816906e+00 1.2209239969260679e+01 1.5858010386463462e+01 0 0 0
514 0 1 0.0000000000000000e+00 1.3912853722972094e+00 1.3676244212630693e+00 1.5930487624955191e+01 0 0 0
28 0 1 0.0000000000000000e+00 2.4234487345895580e+01 1.7107069106845323e+00 1.6306795782385195e+00 0 0 0
637 0 1 0.0000000000000000e+00 2.8539935929577027e+01 1.1887751960703632e+01 1.6141114477021652e+01 0 0 0
66 0 1 0.0000000000000000e+00 1.4536712858256717e+00 1.0159266069706467e+01 -2.3424838497521144e-01 0 0 0
411 0 1 0.0000000000000000e+00 2.6255797029130523e+01 -3.4817053165360368e-01 1.4152827254224484e+01 0 0 0
32 0 1 0.0000000000000000e+00 2.8518054231017587e+01 1.4755350126597020e+00 1.7078123109250605e+00 0 0 0
281 0 1 0.0000000000000000e+00 2.4583922836121680e+01 -4.3634113126483376e-01 7.8377903002882494e+00 0 0 0
1311 0 1 0.0000000000000000e+00 3.1024927294538038e+01 1.5799430218704604e+01 9.9709841110904627e+00 0 0 0
35 0 1 0.0000000000000000e+00 1.3692773074657112e+00 3.6334064423343904e+00 1.8155570195410662e+00 0 0 0
36 0 1 0.0000000000000000e+00 3.2698137327516712e+01 5.3013999832422476e+00 1.5305593896777483e+00 -1 0 0
121 0 1 0.0000000000000000e+00 2.5027503306632699e+01 1.1910944786230537e+01 -3.1411900452954944e-02 0 0 0
46 0 1 0.0000000000000000e+00 1.4423630539495015e+01 5.9274002127113059e+00 -3.9045888362905501e-01 0 0 0
39 0 1 0.0000000000000000e+00 5.9485430149730778e+00 3.6127916305751286e+00 1.3486164620884891e+00 0 0 0
40 0 1 0.0000000000000000e+00 4.1408199710399733e+00 5.6960810963763180e+00 1.4282633398263507e+00 0 0 0
27 0 1 0.0000000000000000e+00 2.6502161022220196e+01 -1.0312649355132081e-01 1.7855175288067158e+00 0 0 0
1167 0 1 0.0000000000000000e+00 1.4576368677300582e+01 1.5899686140633580e+01 5.7968016168787271e+00 0 0 0
43 0 1 0.0000000000000000e+00 1.0419008331197787e+01 3.6177083162523864e+00 2.0434877869295014e+00 0 0 0
44 0 1 0.0000000000000000e+00 8.2305930656520072e+00 5.5879071118591659e+00 1.7589825714158582e+00 0 0 0
1055 0 1 0.0000000000000000e+00 3.0497209093345553e+01 1.6086935776351869e+01 1.3338635426171501e+00 0 0 0
1553 0 1 0.0000000000000000e+00 1.6276639642961811e+01 1.6153187869646313e+01 1.5853506257427142e+01 0 0 0
47 0 1 0.0000000000000000e+00 1.3960478924501658e+01 3.6190399218491676e+00 1.7029736424043120e+00 0 0 0
48 0 1 0.0000000000000000e+00 1.2188892246545688e+01 5.7984237087857151e+00 1.3783618153277377e+00 0 0 0
585 0 1 0.0000000000000000e+00 7.9914561122131360e+00 7.9818173218109933e+00 1.5964230779511603e+01 0 0 0
1039 0 1 0.0000000000000000e+00 1.3950719391643215e+01 1.6101588267219064e+01 1.3905630646066514e+00 0 0 0
51 0 1 0.0000000000000000e+00 1.8503258962510266e+01 3.5894047212266962e+00 1.7112427952147731e+00 0 0 0
52 0 1 0.0000000000000000e+00 1.6501842108384501e+01 5.6532507978687132e+00 1.4311259215513794e+00 0 0 0
149 0 1 0.0000000000000000e+00 2.0545851185480700e+01 -1.7968984456462289e-01 3.8361434157263430e+00 0 0 0
1175 0 1 0.0000000000000000e+00 2.2393419990706683e+01 1.5830509735815301e+01 5.8126181507573413e+00 0 0 0
55 0 1 0.0000000000000000e+00 2.2184231530430814e+01 3.7597155846080588e+00 1.4195500433266683e+00 0 0 0
56 0 1 0.0000000000000000e+00 2.0315057688085528e+01 5.4714513405694234e+00 1.8256736033759546e+00 0 0 0
155 0 1 0.0000000000000000e+00 2.6736617170810526e+01 -1.8025040919196716e-01 6.0285802612830146e+00 0 0 0
23 0 1 0.0000000000000000e+00 2.2231461372585354e+01 -1.8363982485267155e-01 1.7885350809568754e+00 0 0 0
59 0 1 0.0000000000000000e+00 2.6006849508337556e+01 4.1669073816809163e+00 1.7943446094513602e+00 0 0 0
60 0 1 0.0000000000000000e+00 2.4088477949436687e+01 6.0188960223503623e+00 1.9709392602223530e+00 0 0 0
10 0 1 0.0000000000000000e+00 1.0034644904523336e+01 1.6244117418640283e+00 -3.3378284111716988e-01 0 0 0
117 0 1 0.0000000000000000e+00 2.0310019441293210e+01 1.1927790415994933e+01 1.2625038543020239e-01 0 0 0
63 0 1 0.0000000000000000e+00 3.0415931136124083e+01 3.8045145360396493e+00 1.7130305572226603e+00 0 0 0
64 0 1 0.0000000000000000e+00 2.8307981437898768e+01 5.9248928864922386e+00 1.8896488820877972e+00 0 0 0
582 0 1 0.0000000000000000e+00 5.6678251327764251e+00 9.8569893269251327e+00 1.5936660005595694e+01 0 0 0
1301 0 1 0.0000000000000000e+00 1.9893228990957184e+01 1.5995763171548500e+01 7.5764046807866201e+00 0 0 0
67 0 1 0.0000000000000000e+00 1.8165603032181998e+00 7.6738556477490931e+00 1.7544320137970919e+00 0 0 0
68 0 1 0.0000000000000000e+00 3.2600909428715163e+01 9.5648284789668896e+00 1.6179063343109306e+00 -1 0 0
93 0 1 0.0000000000000000e+00 2.8431862636310338e+01 7.4217299413570306e+00 -3.8622800920567224e-01 0 0 0
557 0 1 0.0000000000000000e+00 1.1993204166297476e+01 3.8728929544994033e+00 1.6050211747133947e+01 0 0 0
71 0 1 0.0000000000000000e+00 5.7502939260866857e+00 7.7380766684713151e+00 1.3484506762755586e+00 0 0 0
72 0 1 0.0000000000000000e+00 3.7039867402527262e+00 9.6889116697450781e+00 1.6633464353633793e+00 0 0 0
1293 0 1 0.0000000000000000e+00 1.1989627288996614e+01 1.6003476207894451e+01 7.5292495311464656e+00 0 0 0
399 0 1 0.0000000000000000e+00 1.4394473879008000e+01 -1.9380473858257288e-01 1.3973340619336897e+01 0 0 0
75 0 1 0.0000000000000000e+00 1.0175241022226315e+01 7.8012468461832327e+00 1.6379527634478857e+00 0 0 0
76 0 1 0.0000000000000000e+00 7.9842480913037086e+00 9.8654498499195871e+00 1.7701976504788788e+00 0 0 0
141 0 1 0.0000000000000000e+00 1.2169285318569180e+01 -3.9820620558980641e-01 3.7450955481369244e+00 0 0 0
157 0 1 0.0000000000000000e+00 2.8434372663076591e+01 -2.1773198437489097e-01 3.7714084882497936e+00 0 0 0
79 0 1 0.0000000000000000e+00 1.4179898924698479e+01 8.1204966434416423e+00 1.7881134673977863e+00 0 0 0
80 0 1 0.0000000000000000e+00 1.1884991105058299e+01 9.8124441194232510e+00 1.7523776692411301e+00 0 0 0
31 0 1 0.0000000000000000e+00 3.0827736142959239e+01 -2.8414955524215335e-01 1.7474796213195085e+00 0 0 0
137 0 1 0.0000000000000000e+00 7.6331787488558405e+00 -1.5273292397044208e-01 3.9288254475278235e+00 0 0 0
83 0 1 0.0000000000000000e+00 1.8417850248274938e+01 7.4304347262953989e+00 1.6817709621340464e+00 0 0 0
84 0 1 0.0000000000000000e+00 1.6244057510582977e+01 9.7982560691620169e+00 1.3579216355206283e+00 0 0 0
562 0 1 0.0000000000000000e+00 1.8248048062498057e+01 5.9526962885373464e+00 1.6071057296613656e+01 0 0 0
1307 0 1 0.0000000000000000e+00 2.6539616833922480e+01 1.5995016423726025e+01 9.9836462384000306e+00 0 0 0
87 0 1 0.0000000000000000e+00 2.2310517688362825e+01 7.8045440538966062e+00 1.7175688668925324e+00 0 0 0
88 0 1 0.0000000000000000e+00 2.0047991689234188e+01 9.6297476476276849e+00 2.0639076524944584e+00 0 0 0
621 0 1 0.0000000000000000e+00 1.2048595082127829e+01 1.1771949909156080e+01 1.5736031003171185e+01 0 0 0
26 0 1 0.0000000000000000e+00 2.6651625959206946e+01 1.6286094624131762e+00 -3.0376944759037305e-01 0 0 0
91 0 1 0.0000000000000000e+00 2.6130274164216324e+01 7.7735696624458903e+00 1.7062211421400959e+00 0 0 0
92 0 1 0.0000000000000000e+00 2.4237900070169427e+01 9.8764920485374557e+00 1.5997197202628204e+00 0 0 0
1281 0 1 0.0000000000000000e+00 -2.9382875554007526e-01 1.6124843470077547e+01 8.0284631360312915e+00 0 0 0
102 0 1 0.0000000000000000e+00 5.7042719499065377e+00 1.4003739079350524e+01 -4.3334599304659582e-01 0 0 0
95 0 1 0.0000000000000000e+00 3.0564021978982822e+01 7.8483410926713688e+00 1.2903866941582423e+00 0 0 0
96 0 1 0.0000000000000000e+00 2.8892306733785855e+01 9.8166014783783293e+00 1.6003755356631424e+00 0 0 0
15 0 1 0.0000000000000000e+00 1.4157585837526245e+01 -2.0113946791321391e-02 1.8962542108945333e+00 0 0 0
82 0 1 0.0000000000000000e+00 1.8342101630907859e+01 9.3186320479464264e+00 -3.7562433320090061e-01 0 0 0
99 0 1 0.0000000000000000e+00 1.4151217806377496e+00 1.1993788861555435e+01 1.5917976075429290e+00 0 0 0
100 0 1 0.0000000000000000e+00 -3.7304610586267595e-01 1.4110025564192176e+01 1.5160057777926756e+00 0 0 0
606 0 1 0.0000000000000000e+00 3.1058807838787928e+01 1.0131291023817425e+01 1.5883819410417640e+01 0 0 0
22 0 1 0.0000000000000000e+00 2.2116155338588715e+01 1.6694833184610491e+00 -4.0449464502766697e-01 0 0 0
103 0 1 0.0000000000000000e+00 5.7902355105258323e+00 1.1985505812800691e+01 1.7349190602214342e+00 0 0 0
104 0 1 0.0000000000000000e+00 3.7770375760104917e+00 1.3836178724856614e+01 1.8839086126916205e+00 0 0 0
109 0 1 0.0000000000000000e+00 1.2210081723012816e+01 1.2050545028785933e+01 -3.3664240707436016e-01 0 0 0
457 0 1 0.0000000000000000e+00 7.9452025834104525e+00 7.9129687297600579e+00 1.1946867968845726e+01 0 0 0
107 0 1 0.0000000000000000e+00 9.7710630687295161e+00 1.1800367835831047e+01 1.4656732572065070e+00 0 0 0
108 0 1 0.0000000000000000e+00 7.9125923448381297e+00 1.3924999021626478e+01 1.6886426624372679e+00 0 0 0
590 0 1 0.0000000000000000e+00 1.3742272802781942e+01 9.6724275869242469e+00 1.5905825404834836e+01 0 0 0
1305 0 1 0.0000000000000000e+00 2.4393728805488465e+01 1.5992551483469743e+01 8.2231014533250431e+00 0 0 0
111 0 1 0.0000000000000000e+00 1.4214366492351077e+01 1.1925264327258331e+01 2.0343716897600315e+00 0 0 0
112 0 1 0.0000000000000000e+00 1.2257275632856681e+01 1.3846939829320231e+01 1.8319123719671557e+00 0 0 0
1047 0 1 0.0000000000000000e+00 2.2516650393674819e+01 1.6091004160086754e+01 1.1422915659475474e+00 0 0 0
133 0 1 0.0000000000000000e+00 3.4885757669229700e+00 -3.5831954947586542e-01 3.7580560458402816e+00 0 0 0
115 0 1 0.0000000000000000e+00 1.8114309738499099e+01 1.1515592965120272e+01 1.2321959052660596e+00 0 0 0
116 0 1 0.0000000000000000e+00 1.6203433306067058e+01 1.4007461092038801e+01 1.4673581983635240e+00 0 0 0
1309 0 1 0.0000000000000000e+00 2.8673351822156924e+01 1.5887419123116231e+01 7.9279176797268569e+00 0 0 0
1177 0 1 0.0000000000000000e+00 2.4784479402682187e+01 1.5946668880189854e+01 3.8751189629320839e+00 0 0 0
119 0 1 0.0000000000000000e+00 2.2604674135227505e+01 1.2172999520747986e+01 1.6134560783252403e+00 0 0 0
120 0 1 0.0000000000000000e+00 2.0421968901962817e+01 1.4486280658882412e+01 1.4567369685163434e+00 0 0 0
456 0 1 0.0000000000000000e+00 3.7514826635938272e+00 9.7552870475737539e+00 1.4106873657338010e+01 0 0 0
459 0 1 0.0000000000000000e+00 9.8464804974731184e+00 7.9191345094273817e+00 1.4133442193385511e+01 0 0 0
123 0 1 0.0000000000000000e+00 2.7182681444358810e+01 1.2014103465464370e+01 1.8394202173069218e+00 0 0 0
124 0 1 0.0000000000000000e+00 2.4897529524358070e+01 1.4033728200293965e+01 1.7192479664909888e+00 0 0 0
464 0 1 0.0000000000000000e+00 1.1916096999123166e+01 9.8907936387431370e+00 1.3770520410986796e+01 0 0 0
463 0 1 0.0000000000000000e+00 1.4238160933787634e+01 8.0606716650639250e+00 1.3704633044630468e+01 0 0 0
127 0 1 0.0000000000000000e+00 3.0569295281762109e+01 1.1764912716022108e+01 1.6891646456542606e+00 0 0 0
128 0 1 0.0000000000000000e+00 2.8791750022601068e+01 1.3957260233904826e+01 1.5847371441346634e+00 0 0 0
1299 0 1 0.0000000000000000e+00 1.7981262515790942e+01 1.6012328203647616e+01 9.9157073272721217e+00 0 0 0
130 0 1 0.0000000000000000e+00 1.5473390268108265e+00 1.6462869274889109e+00 3.7104211832768357e+00 0 0 0
505 0 1 0.0000000000000000e+00 2.4619293645558276e+01 1.1853143877963079e+01 1.2181932436208456e+01 0 0 0
132 0 1 0.0000000000000000e+00 -3.4977088225667213e-01 1.7418504851634737e+00 5.5954009887990601e+00 0 0 0
504 0 1 0.0000000000000000e+00 2.0136697071124971e+01 1.4183460102025192e+01 1.4286693660092382e+01 0 0 0
134 0 1 0.0000000000000000e+00 5.5030206466903415e+00 2.2460418636319055e+00 3.6814182693373514e+00 0 0 0
455 0 1 0.0000000000000000e+00 5.5086132562240140e+00 7.9342111720734181e+00 1.3884254033091043e+01 0 0 0
136 0 1 0.0000000000000000e+00 3.6480435762505525e+00 1.9288165442611032e+00 5.4170024279844036e+00 0 0 0
503 0 1 0.0000000000000000e+00 2.2552148233120036e+01 1.2183347183300389e+01 1.4085370300914697e+01 0 0 0
138 0 1 0.0000000000000000e+00 1.0206390213473522e+01 1.3124919001632767e+00 3.9343934813973060e+00 0 0 0
462 0 1 0.0000000000000000e+00 1.3845591059809840e+01 9.5741494796768372e+00 1.1785518206928808e+01 0 0 0
140 0 1 0.0000000000000000e+00 7.9164477846505559e+00 1.7856915437736740e+00 5.8988789167741498e+00 0 0 0
502 0 1 0.0000000000000000e+00 2.2438800372308663e+01 1.4175834451281530e+01 1.1954685520109566e+01 0 0 0
142 0 1 0.0000000000000000e+00 1.4517325837868677e+01 1.7340491033213117e+00 3.9811770998200222e+00 0 0 0
458 0 1 0.0000000000000000e+00 9.6447765890691883e+00 9.6280439505984354e+00 1.2089082992951369e+01 0 0 0
144 0 1 0.0000000000000000e+00 1.1839127798448944e+01 1.4040014427818117e+00 5.9313177659119605e+00 0 0 0
468 0 1 0.0000000000000000e+00 1.6254684052346217e+01 1.0071697344277991e+01 1.3991029224969958e+01 0 0 0
146 0 1 0.0000000000000000e+00 1.8229625603620022e+01 1.6842437004899162e+00 3.6355629301854693e+00 0 0 0
467 0 1 0.0000000000000000e+00 1.8525760762982390e+01 8.0076341050878383e+00 1.4032647408480099e+01 0 0 0
148 0 1 0.0000000000000000e+00 1.6457789361028464e+01 1.2545988294577821e+00 5.6445850551495527e+00 0 0 0
501 0 1 0.0000000000000000e+00 2.0377662997624370e+01 1.1931731703368682e+01 1.2225306492413523e+01 0 0 0
150 0 1 0.0000000000000000e+00 2.2451349572274545e+01 1.7220541411066712e+00 3.8389988010267562e+00 0 0 0
461 0 1 0.0000000000000000e+00 1.1732477343935926e+01 7.8050568934745534e+00 1.1681054769153373e+01 0 0 0
152 0 1 0.0000000000000000e+00 1.9868830358579210e+01 1.5603353368916202e+00 6.1007267441616193e+00 0 0 0
460 0 1 0.0000000000000000e+00 7.9217198005298908e+00 1.0121939008686276e+01 1.3857697109344318e+01 0 0 0
154 0 1 0.0000000000000000e+00 2.6416284968103081e+01 1.7885395579025563e+00 3.9257284848396123e+00 0 0 0
500 0 1 0.0000000000000000e+00 1.6429885771911003e+01 1.4223996890061729e+01 1.3913505337177897e+01 0 0 0
156 0 1 0.0000000000000000e+00 2.4134029213525693e+01 1.5237578703426378e+00 6.0280602229655047e+00 0 0 0
499 0 1 0.0000000000000000e+00 1.8220750026882037e+01 1.2117431316383643e+01 1.3917265643685397e+01 0 0 0
158 0 1 0.0000000000000000e+00 3.0625870405335760e+01 1.4622777393970849e+00 3.8584344378508524e+00 0 0 0
476 0 1 0.0000000000000000e+00 2.4533722102994336e+01 9.9523418813069675e+00 1.4543006535733838e+01 0 0 0
160 0 1 0.0000000000000000e+00 2.8432829511087821e+01 1.9654791181605198e+00 5.8959887569572560e+00 0 0 0
161 0 1 0.0000000000000000e+00 -3.6053848146678014e-01 3.7252490477067965e+00 3.7490842697793907e+00 0 0 0
162 0 1 0.0000000000000000e+00 1.5139745862358767e+00 5.6957393326720451e+00 3.6982884202956496e+00 0 0 0
163 0 1 0.0000000000000000e+00 1.6226224629673829e+00 3.9440698043815949e+00 5.9632514017530323e+00 0 0 0
164 0 1 0.0000000000000000e+00 3.2731702498822898e+01 6.1224577428025375e+00 5.7450093763651280e+00 -1 0 0
165 0 1 0.0000000000000000e+00 3.3469002274334341e+00 4.1397977943201862e+00 3.6730064013568304e+00 0 0 0
166 0 1 0.0000000000000000e+00 6.1071315569851983e+00 5.6695616847061006e+00 3.9840819968989054e+00 0 0 0
167 0 1 0.0000000000000000e+00 5.8978971403047487e+00 3.5810865743232787e+00 6.0113339591146850e+00 0 0 0
168 0 1 0.0000000000000000e+00 3.5040139654306679e+00 5.5637003761855990e+00 6.1243952848436294e+00 0 0 0
169 0 1 0.0000000000000000e+00 7.9051092957936966e+00 3.5170447178807316e+00 3.6040240251564821e+00 0 0 0
170 0 1 0.0000000000000000e+00 1.0279966728377811e+01 5.7081170432061716e+00 3.9929132861594017e+00 0 0 0
171 0 1 0.0000000000000000e+00 9.8947001446420941e+00 3.5370069797647479e+00 6.1468202626473500e+00 0 0 0
172 0 1 0.0000000000000000e+00 8.0951966163847455e+00 5.3090931573106177e+00 5.5992189860937858e+00 0 0 0
173 0 1 0.0000000000000000e+00 1.2360693343618692e+01 3.3286979705553743e+00 4.1267139955796690e+00 0 0 0
174 0 1 0.0000000000000000e+00 1.3763678486351498e+01 5.6686751901220074e+00 3.7928696368213695e+00 0 0 0
175 0 1 0.0000000000000000e+00 1.4642115171692359e+01 3.7716016556562089e+00 5.7631866473764584e+00 0 0 0
176 0 1 0.0000000000000000e+00 1.1895286344729564e+01 5.5790200881353007e+00 5.9989168866426743e+00 0 0 0
177 0 1 0.0000000000000000e+00 1.6256929500070896e+01 3.8410262897054901e+00 3.6576105308277036e+00 0 0 0
178 0 1 0.0000000000000000e+00 1.8295483953989233e+01 5.6578347190555984e+00 3.7014153569158479e+00 0 0 0
179 0 1 0.0000000000000000e+00 1.7926431601058241e+01 3.4737382876411016e+00 5.7883687805567359e+00 0 0 0
180 0 1 0.0000000000000000e+00 1.6304578935197178e+01 5.9785648567519889e+00 5.5582700017143924e+00 0 0 0
181 0 1 0.0000000000000000e+00 2.0064036856730180e+01 3.7247264232113437e+00 4.0435560834417688e+00 0 0 0
182 0 1 0.0000000000000000e+00 2.2023833284074968e+01 5.5180133696614986e+00 3.8978718078830328e+00 0 0 0
183 0 1 0.0000000000000000e+00 2.2172330739063248e+01 3.7272931204460411e+00 6.0922323592743526e+00 0 0 0
184 0 1 0.0000000000000000e+00 1.9906872757221468e+01 6.1953455772200323e+00 6.1220128175076232e+00 0 0 0
185 0 1 0.0000000000000000e+00 2.4116494800472051e+01 3.8531751886133190e+00 3.7658120521412251e+00 0 0 0
186 0 1 0.0000000000000000e+00 2.6044639931620168e+01 5.7361584291697634e+00 3.9014562528707968e+00 0 0 0
187 0 1 0.0000000000000000e+00 2.6107878980707820e+01 3.5604163033251153e+00 5.9445140443500586e+00 0 0 0
188 0 1 0.0000000000000000e+00 2.4324982722758413e+01 5.7911938403824630e+00 6.0656379839366226e+00 0 0 0
189 0 1 0.0000000000000000e+00 2.8226831570041650e+01 3.8777914996915142e+00 3.3642444159130265e+00 0 0 0
190 0 1 0.0000000000000000e+00 3.0609652301262713e+01 6.0860626625877146e+00 3.6942612139307336e+00 0 0 0
191 0 1 0.0000000000000000e+00 3.0513534975373322e+01 4.1251089507177987e+00 5.4812857663528520e+00 0 0 0
192 0 1 0.0000000000000000e+00 2.8308535309459344e+01 5.4292293515418066e+00 5.8323596285863806e+00 0 0 0
193 0 1 0.0000000000000000e+00 -3.4907492027756160e-01 7.7908957159045240e+00 3.3953359200457798e+00 0 0 0
194 0 1 0.0000000000000000e+00 1.3726096660387475e+00 9.8204611322542021e+00 4.1892733422662847e+00 0 0 0
195 0 1 0.0000000000000000e+00 1.7397262011081422e+00 7.6317612365739720e+00 6.0004769850927273e+00 0 0 0
196 0 1 0.0000000000000000e+00 3.2620215275056594e+01 9.3638322818077917e+00 5.9090042583192766e+00 -1 0 0
197 0 1 0.0000000000000000e+00 3.7285846326197598e+00 7.3848895922819464e+00 3.5915503408523231e+00 0 0 0
198 0 1 0.0000000000000000e+00 5.2242237062350734e+00 9.7399047011250879e+00 3.8360297155725229e+00 0 0 0
199 0 1 0.0000000000000000e+00 5.7544972553774141e+00 7.7526666505238744e+00 5.7513031662458314e+00 0 0 0
200 0 1 0.0000000000000000e+00 3.6236783264694070e+00 9.5986260877809517e+00 5.6624684897614257e+00 0 0 0
201 0 1 0.0000000000000000e+00 7.9389357614613889e+00 7.6433708195857939e+00 3.5948874892607705e+00 0 0 0
202 0 1 0.0000000000000000e+00 9.5101657208958326e+00 9.7369236690308778e+00 3.7625833397507762e+00 0 0 0
203 0 1 0.0000000000000000e+00 1.0120874984581244e+01 7.6438471957886183e+00 5.8198086745760271e+00 0 0 0
204 0 1 0.0000000000000000e+00 7.8575816390794841e+00 9.5199030430496201e+00 5.8613625690135578e+00 0 0 0
205 0 1 0.0000000000000000e+00 1.1867400621247240e+01 7.8893395581615877e+00 3.8760708653828955e+00 0 0 0
206 0 1 0.0000000000000000e+00 1.4554038555203764e+01 9.7250620920145661e+00 3.8701717197651035e+00 0 0 0
207 0 1 0.0000000000000000e+00 1.4450675167370173e+01 7.6615492344397182e+00 5.7263410619003992e+00 0 0 0
208 0 1 0.0000000000000000e+00 1.2503858669906403e+01 1.0243883204721293e+01 5.8697459912839758e+00 0 0 0
209 0 1 0.0000000000000000e+00 1.6243451601715488e+01 7.6303921626814137e+00 3.1491767283351511e+00 0 0 0
210 0 1 0.0000000000000000e+00 1.8345755439838470e+01 9.8417306183821740e+00 3.7711213042188847e+00 0 0 0
211 0 1 0.0000000000000000e+00 1.8093213915510859e+01 8.0089375744487494e+00 5.7677460157811318e+00 0 0 0
212 0 1 0.0000000000000000e+00 1.6154639202253090e+01 1.0270613829689189e+01 5.9730987197791565e+00 0 0 0
213 0 1 0.0000000000000000e+00 2.0181457460459630e+01 7.6073286117396890e+00 3.7471137308973255e+00 0 0 0
214 0 1 0.0000000000000000e+00 2.2161007049915550e+01 9.7688503076956454e+00 3.6312699341386629e+00 0 0 0
215 0 1 0.0000000000000000e+00 2.2190764283280359e+01 7.8459008044996921e+00 5.8245102134774793e+00 0 0 0
216 0 1 0.0000000000000000e+00 2.0378638149054350e+01 9.8128804959736442e+00 5.8199587082712920e+00 0 0 0
217 0 1 0.0000000000000000e+00 2.4169825424241139e+01 7.9453094687132779e+00 4.0735850310496149e+00 0 0 0
218 0 1 0.0000000000000000e+00 2.6203806686916323e+01 9.5882774668324817e+00 3.6386298107327812e+00 0 0 0
219 0 1 0.0000000000000000e+00 2.6713711343657575e+01 7.8610234979121056e+00 5.7348581679390351e+00 0 0 0
220 0 1 0.0000000000000000e+00 2.4417024579799865e+01 9.8606747621644075e+00 6.3361828692190514e+00 0 0 0
221 0 1 0.0000000000000000e+00 2.8688516690047429e+01 7.8764278603477234e+00 3.5888228721474542e+00 0 0 0
222 0 1 0.0000000000000000e+00 3.0744957151102600e+01 9.2890620802714068e+00 3.9077989632466101e+00 0 0 0
223 0 1 0.0000000000000000e+00 3.0639870021584755e+01 7.4391703252826549e+00 5.9298665760720475e+00 0 0 0
224 0 1 0.0000000000000000e+00 2.8734658181824734e+01 9.5444994588240135e+00 5.9418331077453415e+00 0 0 0
225 0 1 0.0000000000000000e+00 -3.1942743521412648e-01 1.2300613441716802e+01 3.6704330211643965e+00 0 0 0
226 0 1 0.0000000000000000e+00 1.6264651550746718e+00 1.4227977867389413e+01 4.1420246125438833e+00 0 0 0
227 0 1 0.0000000000000000e+00 1.3165311195937184e+00 1.2148487900018518e+01 5.6254046875368253e+00 0 0 0
228 0 1 0.0000000000000000e+00 3.2610856985224949e+01 1.4363282143716534e+01 5.9589903168894036e+00 -1 0 0
229 0 1 0.0000000000000000e+00 3.2234173084551534e+00 1.1493291428434533e+01 3.6576204503960064e+00 0 0 0
230 0 1 0.0000000000000000e+00 5.9660609374676339e+00 1.4061652457805637e+01 3.5100393521908004e+00 0 0 0
231 0 1 0.0000000000000000e+00 5.2498490798663129e+00 1.1945536717259950e+01 5.7762090584028227e+00 0 0 0
232 0 1 0.0000000000000000e+00 4.0067506111216691e+00 1.4595128190911522e+01 5.3646358378700487e+00 0 0 0
233 0 1 0.0000000000000000e+00 7.8271206630391319e+00 1.1978231660869257e+01 3.7876256653494433e+00 0 0 0
234 0 1 0.0000000000000000e+00 1.0057006032436490e+01 1.3984553057668341e+01 3.5887041314771864e+00 0 0 0
235 0 1 0.0000000000000000e+00 1.0072426910107495e+01 1.1939856682302374e+01 5.4771301880293439e+00 0 0 0
236 0 1 0.0000000000000000e+00 7.9326611802248337e+00 1.4153324181870211e+01 5.5919361321491747e+00 0 0 0
237 0 1 0.0000000000000000e+00 1.2042120459597955e+01 1.1823920869985411e+01 3.5307637229092594e+00 0 0 0
238 0 1 0.0000000000000000e+00 1.4349247185211579e+01 1.4317689387980277e+01 3.7238082132268397e+00 0 0 0
239 0 1 0.0000000000000000e+00 1.4395805175025847e+01 1.2103697825285405e+01 5.3408610951343585e+00 0 0 0
240 0 1 0.0000000000000000e+00 1.2306521397159280e+01 1.3854066163172329e+01 5.5215865836225237e+00 0 0 0
241 0 1 0.0000000000000000e+00 1.6376646309681291e+01 1.1851881620082839e+01 3.5063866759418629e+00 0 0 0
242 0 1 0.0000000000000000e+00 1.8069223216983126e+01 1.4131513576348690e+01 3.5178582193647689e+00 0 0 0
243 0 1 0.0000000000000000e+00 1.8051698296774461e+01 1.2161944053316933e+01 5.4432528029467306e+00 0 0 0
244 0 1 0.0000000000000000e+00 1.6458176862852110e+01 1.4046962825201820e+01 5.6161950964170577e+00 0 0 0
245 0 1 0.0000000000000000e+00 1.9972977184272473e+01 1.2039496970213946e+01 3.0138750958842615e+00 0 0 0
246 0 1 0.0000000000000000e+00 2.2375205422525390e+01 1.4277999556134288e+01 3.5808245065763851e+00 0 0 0
247 0 1 0.0000000000000000e+00 2.2018875715801492e+01 1.1909611535079387e+01 5.3606485541860502e+00 0 0 0
248 0 1 0.0000000000000000e+00 2.0209114712769690e+01 1.4092469764600713e+01 5.3386431673129655e+00 0 0 0
249 0 1 0.0000000000000000e+00 2.5019564173286586e+01 1.2056522717882887e+01 3.7159324847713702e+00 0 0 0
250 0 1 0.0000000000000000e+00 2.6984243043279239e+01 1.3968129462730522e+01 3.9137735574445491e+00 0 0 0
251 0 1 0.0000000000000000e+00 2.6608975501600657e+01 1.1711832599556450e+01 6.1572662751146341e+00 0 0 0
252 0 1 0.0000000000000000e+00 2.4409124150112245e+01 1.3744582029526017e+01 5.6155854897582991e+00 0 0 0
253 0 1 0.0000000000000000e+00 2.8398410869567495e+01 1.1527317444652869e+01 3.8884267523471259e+00 0 0 0
254 0 1 0.0000000000000000e+00 3.0451699051994474e+01 1.3992821153550059e+01 3.7614782452943123e+00 0 0 0
255 0 1 0.0000000000000000e+00 3.0737079155456758e+01 1.1953895637722889e+01 5.8990865985618930e+00 0 0 0
256 0 1 0.0000000000000000e+00 2.8813203722836572e+01 1.3985854669696364e+01 5.7994987152843303e+00 0 0 0
471 0 1 0.0000000000000000e+00 2.2460975544601823e+01 7.7839095395957898e+00 1.4198666144358077e+01 0 0 0
258 0 1 0.0000000000000000e+00 1.5387358004177030e+00 1.2900740684216014e+00 7.7120595420402598e+00 0 0 0
1537 0 1 0.0000000000000000e+00 -2.5620451579104153e-01 1.6108951544241904e+01 1.6111475631953510e+01 0 0 0
260 0 1 0.0000000000000000e+00 3.2611334367224259e+01 1.7763408561222560e+00 1.0167065436999296e+01 -1 0 0
466 0 1 0.0000000000000000e+00 1.8388619025155123e+01 9.9763329851536326e+00 1.2405952275022946e+01 0 0 0
262 0 1 0.0000000000000000e+00 5.5518210039571372e+00 1.3996034362410386e+00 7.7895720633717218e+00 0 0 0
498 0 1 0.0000000000000000e+00 1.8385022090900389e+01 1.4043991727300225e+01 1.2039308238149571e+01 0 0 0
264 0 1 0.0000000000000000e+00 3.6406006269477489e+00 1.4101000487823905e+00 9.9443900491787787e+00 0 0 0
497 0 1 0.0000000000000000e+00 1.6465805297053045e+01 1.2066022639096552e+01 1.2112544098041583e+01 0 0 0
266 0 1 0.0000000000000000e+00 9.9660810179661805e+00 1.4807112730628507e+00 8.0836994959970561e+00 0 0 0
470 0 1 0.0000000000000000e+00 2.2385695949930696e+01 9.6617137856361737e+00 1.2129949655666261e+01 0 0 0
268 0 1 0.0000000000000000e+00 7.6327379582095087e+00 1.2324046397630763e+00 9.7899912004694336e+00 0 0 0
475 0 1 0.0000000000000000e+00 2.6472870438251892e+01 7.5839465980715524e+00 1.4273984619625994e+01 0 0 0
270 0 1 0.0000000000000000e+00 1.4418321147395002e+01 1.4918789964803900e+00 7.5854524911507362e+00 0 0 0
474 0 1 0.0000000000000000e+00 2.6878940583775950e+01 9.7492671706557879e+00 1.2052937696779082e+01 0 0 0
272 0 1 0.0000000000000000e+00 1.2055887385942819e+01 1.5637348504951829e+00 9.6237209488611093e+00 0 0 0
473 0 1 0.0000000000000000e+00 2.4610567617853661e+01 8.0463560232530718e+00 1.2111195025615448e+01 0 0 0
274 0 1 0.0000000000000000e+00 1.8071741592629824e+01 1.5348471106108603e+00 8.0105484871172070e+00 0 0 0
496 0 1 0.0000000000000000e+00 1.1911403881953319e+01 1.3699813551227553e+01 1.3755097306656822e+01 0 0 0
276 0 1 0.0000000000000000e+00 1.5820466658301545e+01 1.4009115138524613e+00 9.7957302301585418e+00 0 0 0
495 0 1 0.0000000000000000e+00 1.3890498571003089e+01 1.1886934964914236e+01 1.3884044108121836e+01 0 0 0
278 0 1 0.0000000000000000e+00 2.1807856313696497e+01 9.6178424995198375e-01 7.9669499905078265e+00 0 0 0
494 0 1 0.0000000000000000e+00 1.4058337741847160e+01 1.3915686601674070e+01 1.1999498216006522e+01 0 0 0