LAMMPS (31 Mar 2017)
Running on 1 partitions of processors
