LAMMPS data file via write_data, version 31 Mar 2017, timestep = 250000

2048 atoms
1 atom types

-7.4776692357437113e-01 3.3115766923573631e+01 xlo xhi
-7.4776692357437113e-01 3.3115766923573631e+01 ylo yhi
-7.4776692357437113e-01 3.3115766923573631e+01 zlo zhi
0.0000000000000000e+00 0.0000000000000000e+00 0.0000000000000000e+00 xy xz yz

Masses

1 26.9815

Atoms # full

1720 0 1 0.0000000000000000e+00 1.0219756843985042e+01 -5.3992639513929441e-01 8.3756198935814865e+00 1 0 1
1000 0 1 0.0000000000000000e+00 1.8838658908619422e+01 1.4917579956069952e+01 2.4248234242401989e+00 -1 1 0
1629 0 1 0.0000000000000000e+00 6.6522811148844574e-01 7.2379452072091865e+00 -7.3676080718719961e-01 0 1 -1
1066 0 1 0.0000000000000000e+00 2.4323226196307896e+01 1.7111086745513608e+00 1.5565966244110975e+01 -1 0 0
1924 0 1 0.0000000000000000e+00 3.1075355297395102e+01 -6.8019190448805655e-01 2.4815024304088493e+00 -1 0 0
1023 0 1 0.0000000000000000e+00 1.7260626591735271e+01 8.6341435549513985e+00 3.1907842401385800e+00 1 0 2
1338 0 1 0.0000000000000000e+00 8.3056324371552801e+00 7.7718438820023668e+00 3.5189738051494706e+00 0 0 0
1190 0 1 0.0000000000000000e+00 4.0433749376943249e+00 1.3031325548271306e+01 2.8230206299687142e+00 0 0 2
1921 0 1 0.0000000000000000e+00 1.1317569418670343e+01 6.6002169945598315e+00 6.9754331295515568e+00 -1 0 1
1397 0 1 0.0000000000000000e+00 1.9578475610656071e+01 8.6590155800636168e+00 1.8000776387463597e+00 -2 2 2
1428 0 1 0.0000000000000000e+00 2.7906177454277916e+01 6.8608674392533064e+00 1.9366025411768004e+00 -3 -1 0
1944 0 1 0.0000000000000000e+00 3.7097062209412144e+00 1.2057347232408938e+01 1.1899181331524144e+01 -1 1 1
1848 0 1 0.0000000000000000e+00 2.9103919769806826e+01 1.0136388518866539e+01 6.2973986480605628e+00 1 1 -1
1288 0 1 0.0000000000000000e+00 2.9048390645850834e+01 1.4795043027377453e+01 6.3043384199514811e+00 0 -1 0
1750 0 1 0.0000000000000000e+00 1.0204085743100400e+00 6.8474019577426661e+00 1.4202809089876014e+01 0 1 -1
1474 0 1 0.0000000000000000e+00 2.3539855627891008e+01 2.5311473784294600e+00 -2.8103926925233330e-01 0 1 0
992 0 1 0.0000000000000000e+00 1.5442408239280596e+01 4.6581282781509010e+00 1.3642222459823587e+00 0 -1 2
1324 0 1 0.0000000000000000e+00 1.8167345459991534e+01 1.2857536583411555e+01 4.9433133151554864e+00 -1 1 0
1083 0 1 0.0000000000000000e+00 2.4030183760933379e+01 1.4915765247290205e+01 1.5753631952382335e+01 1 1 -2
1991 0 1 0.0000000000000000e+00 1.3520875752183992e+01 1.2016434654649821e+01 1.2765302968498501e+01 -1 2 0
1599 0 1 0.0000000000000000e+00 2.7591883852409907e+01 3.9817522139425221e-01 1.5721691298760728e+01 1 0 3
626 0 1 0.0000000000000000e+00 7.0292580429129954e+00 3.4635240094575814e-01 1.5070355815401195e+01 0 0 -1
1464 0 1 0.0000000000000000e+00 1.5323538711231571e+01 1.3145755607849702e+01 1.1281048364804077e+01 -1 1 0
1008 0 1 0.0000000000000000e+00 4.3883192221002920e+00 1.1751190414831537e+01 5.5444994382742649e+00 1 1 1
1364 0 1 0.0000000000000000e+00 2.0546573842129625e+00 5.6782667116464083e+00 6.9090202884989944e+00 2 1 1
1670 0 1 0.0000000000000000e+00 6.5093287425298492e+00 5.3951021427997290e+00 4.1043167302750447e+00 0 0 2
761 0 1 0.0000000000000000e+00 2.5276015906880176e+01 1.2127372601983858e+01 1.2505312947555897e+01 0 0 1
395 0 1 0.0000000000000000e+00 4.2136359918973252e+00 7.0367895451471476e+00 5.3867693840424051e+00 0 1 1
1413 0 1 0.0000000000000000e+00 1.2455676811057508e+01 1.2690200404875155e+01 1.0186931503722471e+01 -2 -1 0
938 0 1 0.0000000000000000e+00 2.6372608367519248e+01 1.4638110337896119e+01 5.8055141064017874e+00 -1 0 -1
1412 0 1 0.0000000000000000e+00 1.8753915806330155e+00 1.0897495506744708e+01 1.0196238871305679e+01 0 0 1
278 0 1 0.0000000000000000e+00 2.6751811764564650e+01 1.0702236309740019e+01 1.0417420580818851e+01 0 0 0
1010 0 1 0.0000000000000000e+00 8.2057728247229900e+00 1.4012915029078224e+01 1.3644970764785056e+01 -1 0 -2
1113 0 1 0.0000000000000000e+00 2.4467844917142823e+01 -4.4379054254918149e-01 8.7294117016615367e+00 0 0 -2
1494 0 1 0.0000000000000000e+00 3.2522561473147448e+01 5.3843782920046213e+00 3.0996588586054075e-01 -1 1 0
1602 0 1 0.0000000000000000e+00 1.8699374600178377e+01 8.3555745207196406e+00 1.0203104599545469e+01 -1 0 1
1272 0 1 0.0000000000000000e+00 1.8739246966411734e+01 1.1692366028266054e+01 2.3357274775723482e+00 -1 0 1
1747 0 1 0.0000000000000000e+00 2.4158148688932719e+01 4.1211313272787411e+00 1.2759351448084885e+01 0 0 1
196 0 1 0.0000000000000000e+00 1.3547918107729059e+01 1.5816311842312921e+01 9.7781207766358929e+00 1 -1 0
187 0 1 0.0000000000000000e+00 2.3282386582663825e+01 8.6227429881299305e+00 1.3320090157139317e+01 0 0 0
764 0 1 0.0000000000000000e+00 1.0995626514853367e+01 5.3541710502644477e+00 9.4789465071742001e+00 0 0 0
1595 0 1 0.0000000000000000e+00 2.0044795085212453e+01 1.2406652464283880e+01 1.3146835895313258e+01 0 3 -2
506 0 1 0.0000000000000000e+00 3.3080183296551155e+01 9.5823095279795467e-01 7.6061465847503822e+00 0 2 1
1372 0 1 0.0000000000000000e+00 1.6834584222145104e+01 6.4056678114935917e+00 7.8815891346347762e+00 0 2 2
1850 0 1 0.0000000000000000e+00 2.3720313974117001e+01 1.3704742386802822e+01 7.4288539959114477e+00 1 -1 0
1101 0 1 0.0000000000000000e+00 2.7435155402762636e+01 5.5764447816758489e-01 2.3926852069696811e+00 -1 -1 0
207 0 1 0.0000000000000000e+00 2.2579297980373858e+00 5.3021099049628084e-01 3.1561982805642752e-01 -1 2 1
1740 0 1 0.0000000000000000e+00 1.3060728452085741e+01 7.7888668055391754e+00 1.0829739917411606e+01 0 2 -2
729 0 1 0.0000000000000000e+00 2.8223475925494650e+01 8.7706780761051850e-01 1.2835592131401325e+01 1 0 0
1470 0 1 0.0000000000000000e+00 2.7682821520942738e+01 6.6184826159010113e+00 1.0353514072071658e+01 0 1 -1
8 0 1 0.0000000000000000e+00 1.2371254770952780e+00 8.3943567758789150e+00 1.1293976454896173e+01 0 0 0
1688 0 1 0.0000000000000000e+00 8.7691083230449394e+00 4.3059922792100069e+00 7.8587768064590229e+00 0 1 1
1409 0 1 0.0000000000000000e+00 3.2107369702253138e+01 8.1156650258815937e+00 6.5035650826853031e-02 -1 3 1
927 0 1 0.0000000000000000e+00 2.6021769924819210e+01 3.6458915017036797e-02 1.1158791141169363e+01 0 -1 0
225 0 1 0.0000000000000000e+00 6.9343010705988224e+00 1.5662394812306420e+01 1.0174715209999288e+01 1 -1 -1
449 0 1 0.0000000000000000e+00 3.0949926915483530e+01 5.0274141969080084e+00 7.2254959176939142e+00 1 0 -1
857 0 1 0.0000000000000000e+00 5.3672457138213705e+00 1.0240367068974066e-01 9.6344883904033036e+00 1 2 -1
1763 0 1 0.0000000000000000e+00 2.9186281978136705e+01 1.5451604271119457e+01 1.1072314662137721e+01 0 0 1
1238 0 1 0.0000000000000000e+00 4.0164974785594030e+00 1.5966750034817874e+01 4.9727826387775709e+00 -1 0 -1
1296 0 1 0.0000000000000000e+00 2.1141889752728456e+01 1.2569923597116361e+01 6.1776191034001853e+00 0 0 0
1567 0 1 0.0000000000000000e+00 1.0166379228625274e+01 1.3148171091312063e+01 7.6053208275675495e+00 0 2 1
1429 0 1 0.0000000000000000e+00 2.5341340596173591e+01 8.2155359261270924e+00 9.9324666791917604e+00 0 0 -2
829 0 1 0.0000000000000000e+00 1.7550596608556635e+01 6.4623273236767487e-01 1.1828807702580967e+01 0 -1 1
423 0 1 0.0000000000000000e+00 4.3455628894207114e+00 1.3963779899320995e+01 7.2588277305992115e+00 -1 -1 0
1341 0 1 0.0000000000000000e+00 3.2257641649725940e+01 1.5878109375927064e+01 9.3099161315120185e+00 0 0 0
920 0 1 0.0000000000000000e+00 8.4691784262419194e+00 1.1886493358194180e+01 -3.8822068996174058e-01 1 -1 1
369 0 1 0.0000000000000000e+00 9.4174163386475414e+00 1.1605396107860759e+00 3.7774451195582781e+00 -1 2 -1
966 0 1 0.0000000000000000e+00 1.7732935073162652e+00 2.8078003087551910e+00 7.1156589194269833e+00 1 0 0
1183 0 1 0.0000000000000000e+00 2.2431563069416754e+01 1.1061699016523695e+01 1.2991432170375978e+01 0 -1 0
1554 0 1 0.0000000000000000e+00 3.0272186084845931e+01 1.7215214689323477e+00 3.4101747896470105e+00 -2 1 -1
1022 0 1 0.0000000000000000e+00 2.1454623935590163e+01 4.9761886614823698e+00 3.3207590368755167e+00 1 2 1
433 0 1 0.0000000000000000e+00 1.7951480200482777e+01 1.3494016116639214e+01 1.2261571086635186e+01 1 0 -2
1327 0 1 0.0000000000000000e+00 2.4594199507192823e+01 1.1580382633473757e+01 4.1635838108129386e-01 -1 0 1
676 0 1 0.0000000000000000e+00 2.2510266776207391e+01 1.0424477288143550e+00 5.3131898545866338e+00 0 1 1
656 0 1 0.0000000000000000e+00 2.1864667039301754e+01 7.8557831210703899e+00 1.5571130853978982e+01 -2 0 -1
1695 0 1 0.0000000000000000e+00 2.7380719059493149e+01 1.4343400732728291e+01 8.8320718100091788e+00 1 1 1
791 0 1 0.0000000000000000e+00 3.1401136399451428e+01 1.4493577200211146e+01 1.1704448500432363e+01 0 0 -1
1242 0 1 0.0000000000000000e+00 1.1346318018520979e+01 2.6839935819003928e+00 2.2846712971796923e+00 -1 0 0
1426 0 1 0.0000000000000000e+00 1.6303516955909892e+01 1.4222496929017078e+01 2.8423145525431064e+00 1 -2 0
885 0 1 0.0000000000000000e+00 4.2975654555448148e+00 4.6765798055039411e+00 6.5530184561141782e+00 1 0 1
659 0 1 0.0000000000000000e+00 5.7995730367346772e+00 1.0265986491486569e+01 1.1188343291496373e+01 0 1 2
1147 0 1 0.0000000000000000e+00 -4.3444474157656898e-01 1.2724755718479431e+01 6.4798391880983717e+00 0 0 -1
1753 0 1 0.0000000000000000e+00 2.3320985355566702e+01 9.2298124201928431e+00 1.6701831361201571e+00 1 0 0
1088 0 1 0.0000000000000000e+00 2.6447305648294954e+01 9.2746260061594796e+00 4.2926278506753568e-02 0 2 1
202 0 1 0.0000000000000000e+00 2.1946902217089646e+00 1.3985960604454151e+01 6.0277777088102402e+00 1 1 1
96 0 1 0.0000000000000000e+00 5.1363520517892720e+00 -6.4938933995589698e-03 2.5295672380046175e-01 1 2 -1
1871 0 1 0.0000000000000000e+00 8.2353070078158996e+00 6.8224049198709187e+00 9.3568163509369828e+00 1 1 -1
479 0 1 0.0000000000000000e+00 3.1110659231902540e+00 1.5431165917588395e+01 1.2061306407621627e+01 1 0 1
339 0 1 0.0000000000000000e+00 1.7058793491790574e+01 -3.4990688094404931e-01 3.9175864643602489e+00 0 1 1
984 0 1 0.0000000000000000e+00 1.9092455073550003e+01 5.3130655393270638e+00 5.2265104670083282e+00 1 1 1
810 0 1 0.0000000000000000e+00 1.0750790782983675e+01 4.6667283612850055e+00 1.4935438299315082e+01 0 -2 1
847 0 1 0.0000000000000000e+00 3.5617620111702273e+00 2.2296705611280596e+00 5.2552834533035933e+00 1 1 1
300 0 1 0.0000000000000000e+00 2.7539658812337844e+01 8.8538687306937671e+00 1.2069365585834230e+01 -2 -1 0
337 0 1 0.0000000000000000e+00 2.7273552125178668e+01 1.3707737650229634e+01 1.5894396280698131e+00 1 0 -1
730 0 1 0.0000000000000000e+00 2.0120058004967962e+01 9.4729179768939833e+00 1.4565554033295582e+01 2 -1 0
302 0 1 0.0000000000000000e+00 1.2084905202069102e+01 3.2865084192507288e-01 1.0255436608513216e+01 -1 1 0
1527 0 1 0.0000000000000000e+00 4.5607585957761887e-01 1.4875630032580744e+01 1.3866455095461729e+01 1 3 1
1526 0 1 0.0000000000000000e+00 2.8275369482988506e+01 1.1574087779946643e+01 8.5214405363986607e+00 1 2 -1
18 0 1 0.0000000000000000e+00 6.6289723963263150e+00 1.3276649767229831e+01 1.2575052608838484e+00 0 1 2
787 0 1 0.0000000000000000e+00 3.2845480584616652e+01 1.3469222376255608e+01 2.6459096299017975e+00 0 1 2
1635 0 1 0.0000000000000000e+00 1.5837029947917562e+00 1.4658580211161087e+01 3.9066018671992442e-01 0 0 0
665 0 1 0.0000000000000000e+00 5.7114798880157891e-01 3.4512409488578353e+00 1.4606611651471516e+01 0 0 -1
865 0 1 0.0000000000000000e+00 3.1358677286758283e+01 1.0438580396715345e+00 3.1090896221609454e-01 0 1 -1
1451 0 1 0.0000000000000000e+00 9.4707870201555622e+00 1.3404305421199498e+00 1.4946969075800697e+01 0 0 1
375 0 1 0.0000000000000000e+00 8.1368272489474389e+00 4.7953573062453767e+00 1.0676990963308262e+01 2 0 -1
979 0 1 0.0000000000000000e+00 2.3499390177842546e+01 4.7767020426031710e+00 7.3572167996487146e+00 0 0 1
315 0 1 0.0000000000000000e+00 1.1722255218950833e+01 1.9914349754443017e+00 1.5620542855594955e+01 1 -1 1
1604 0 1 0.0000000000000000e+00 3.6577515330159009e+00 6.2330387009505817e+00 1.4435480215236973e+01 0 0 0
55 0 1 0.0000000000000000e+00 4.4919340694708909e+00 9.1027452972188083e+00 6.9467799330450513e+00 1 1 0
368 0 1 0.0000000000000000e+00 2.6307044853551464e+01 1.2061779613761349e+01 6.8035499335848364e+00 1 0 0
1394 0 1 0.0000000000000000e+00 8.9956795686379198e+00 1.3790939167766982e+01 1.0522150969748886e+01 0 1 1
1805 0 1 0.0000000000000000e+00 2.1010619808238161e+01 1.0528606326658377e+01 3.7965466316487291e+00 -1 0 0
1368 0 1 0.0000000000000000e+00 1.0760475570477313e+01 1.4717470451745514e+01 1.4876670987330899e+01 2 -1 -1
821 0 1 0.0000000000000000e+00 2.5660559350809958e+01 5.4002722652763140e+00 3.3267614169265647e+00 -1 0 2
1840 0 1 0.0000000000000000e+00 1.6229004616366346e+01 3.4295090679419697e+00 1.5477443382924395e+01 -1 0 1
1499 0 1 0.0000000000000000e+00 3.1790773394479936e+00 6.1175754646034743e+00 1.1667774024701071e+01 1 3 -1
1915 0 1 0.0000000000000000e+00 1.6117313715932085e+01 1.2529990763883726e+01 1.3678308439317552e+01 0 -1 0
997 0 1 0.0000000000000000e+00 4.4518090084438811e+00 1.1488153110519669e+01 8.5820212232089332e+00 0 -2 0
1123 0 1 0.0000000000000000e+00 1.6658675409423605e+01 6.8836300973325875e+00 5.0438551921175598e+00 1 1 1
1765 0 1 0.0000000000000000e+00 2.3218745381325927e+01 6.1315955481044337e-01 1.1236189271080464e+01 -1 -1 0
283 0 1 0.0000000000000000e+00 3.1908210719882948e+01 1.5169171030113493e+01 6.5403881476800763e+00 0 -1 0
760 0 1 0.0000000000000000e+00 2.5202324219479213e+01 6.5813811144749375e+00 1.2150302638136287e+01 -1 1 -1
1435 0 1 0.0000000000000000e+00 5.3064562355367020e+00 1.0844172002874114e+01 1.4971136494750645e+00 2 -1 -1
1116 0 1 0.0000000000000000e+00 2.8322773755622034e+01 1.2570448616229370e+01 4.9360235938293142e+00 -1 -1 1
399 0 1 0.0000000000000000e+00 1.2020067105838240e+01 2.8288412840380532e+00 1.2589340108115605e+01 -1 0 0
2018 0 1 0.0000000000000000e+00 2.4760048739327900e+01 1.5879120076897046e+01 3.5372848386784179e+00 -1 0 0
2006 0 1 0.0000000000000000e+00 1.3037606956005259e+01 3.3424529518973154e+00 5.8708443448577619e-01 -2 1 0
903 0 1 0.0000000000000000e+00 2.1326657617386706e+00 1.1538425905636336e+01 4.0700953781624687e+00 1 0 1
1912 0 1 0.0000000000000000e+00 1.8364599314436454e+01 2.6086595535657100e+00 5.1643476506798160e+00 0 1 1
154 0 1 0.0000000000000000e+00 9.4172418239572000e+00 1.5124650777537569e+00 6.7195700816422779e+00 0 -1 1
572 0 1 0.0000000000000000e+00 1.2937153425791610e+01 1.1166090689205538e+01 2.5616996448635292e+00 2 2 0
1950 0 1 0.0000000000000000e+00 2.5616491262749630e+01 -4.4754558925273086e-01 1.3988655224632723e+01 0 3 2
29 0 1 0.0000000000000000e+00 1.6455164301721720e+01 9.3714577543639415e+00 8.7240752268481270e+00 1 -1 -1
758 0 1 0.0000000000000000e+00 9.0131658254959390e+00 1.5913752740649269e+01 1.2210441858569824e+01 0 0 0
181 0 1 0.0000000000000000e+00 2.7862365555002832e+01 4.4571733163600831e+00 2.8861270351536028e-01 1 -2 0
403 0 1 0.0000000000000000e+00 1.0372661424533113e+01 4.7682347527791089e+00 2.0244297483853979e-01 2 -1 2
657 0 1 0.0000000000000000e+00 1.2004210363723011e+01 1.5658215174656220e+01 2.9588400516358715e-01 0 -1 1
1015 0 1 0.0000000000000000e+00 5.8415810080911097e+00 5.0583242882971575e+00 1.2181636152747492e+01 1 0 0
1576 0 1 0.0000000000000000e+00 1.9857559838692332e+01 7.6543530034680018e-01 3.5623745374980800e+00 -1 0 0
1307 0 1 0.0000000000000000e+00 2.4417145814956644e+01 -3.9561057406789929e-01 3.2698105897557888e+00 0 -1 0
108 0 1 0.0000000000000000e+00 2.5961970998480790e+01 9.4866043579385178e+00 1.4029907657018136e+01 1 0 -1
1427 0 1 0.0000000000000000e+00 1.2225216676539592e+01 1.1178081072497491e+01 7.6930732169869565e+00 -1 1 0
1410 0 1 0.0000000000000000e+00 1.9118145327346909e+01 1.2874974277242304e+01 9.9330859267853544e+00 1 -1 -1
1229 0 1 0.0000000000000000e+00 5.8740376743191520e+00 7.1352459648267041e+00 1.0379954879116131e+01 -1 1 1
1981 0 1 0.0000000000000000e+00 5.7419571948169583e+00 7.6774408871728035e+00 2.3519774467171031e+00 1 1 0
1214 0 1 0.0000000000000000e+00 9.1908214982452385e+00 1.5413350321967059e+01 8.1386991418550512e+00 0 0 0
224 0 1 0.0000000000000000e+00 9.0902768394327964e+00 1.0693249140259063e+01 7.5362946616764468e+00 3 -1 -1
1790 0 1 0.0000000000000000e+00 1.0793592879467129e+01 7.0627714623506055e-01 1.2545318331457754e+01 2 0 0
1326 0 1 0.0000000000000000e+00 1.0805298885419177e+01 -3.8336931325223128e-01 5.6318599981728443e+00 1 0 -2
1376 0 1 0.0000000000000000e+00 1.3051129505858226e+01 1.4799888066439214e+01 1.2147560452209268e+01 1 1 0
1237 0 1 0.0000000000000000e+00 1.6435084147454855e+01 4.7295482227639898e+00 1.2359449342225250e+01 2 0 1
937 0 1 0.0000000000000000e+00 2.1313112861217054e+01 3.4171660503547150e+00 1.2689402746111892e+01 -2 0 0
587 0 1 0.0000000000000000e+00 1.3034754373662455e+01 4.1536421058918438e-01 1.3944508436408134e+01 -2 2 0
573 0 1 0.0000000000000000e+00 2.7123326857620538e+00 4.5486845825197229e+00 4.5589545296076404e+00 0 0 0
466 0 1 0.0000000000000000e+00 1.4706765051923901e+01 -4.3523201709041676e-01 9.0100958215753462e+00 0 1 -2
2040 0 1 0.0000000000000000e+00 6.4147386155147936e+00 9.2771120900575887e+00 8.4985562849826515e+00 1 2 2
1896 0 1 0.0000000000000000e+00 2.9998777822651629e+01 7.5273942244815117e+00 1.2935073479723210e+01 -2 0 0
813 0 1 0.0000000000000000e+00 5.7658033596386389e+00 2.6255161556646964e+00 8.4440155815362417e-01 2 0 0
2007 0 1 0.0000000000000000e+00 8.6448879952085509e+00 1.3090441042452334e+00 9.0046425010624476e-01 -1 2 1
563 0 1 0.0000000000000000e+00 2.4605940442108537e+01 1.5609872085315978e+01 1.0459952373976206e+01 1 -1 -1
391 0 1 0.0000000000000000e+00 2.4550777664422512e+01 1.0310576593530344e+01 8.1557067914917170e+00 0 -1 0
1145 0 1 0.0000000000000000e+00 1.7012155649984358e+01 1.4413286487326491e+01 9.5758459920965731e+00 1 0 -1
522 0 1 0.0000000000000000e+00 3.1639463653770097e+01 3.0891553430946952e+00 8.7725714761025859e+00 0 0 1
1655 0 1 0.0000000000000000e+00 2.0119237876484519e+01 7.6717877838119861e+00 4.3197689416830025e+00 -1 0 1
321 0 1 0.0000000000000000e+00 6.8683367234724724e+00 1.4367942689098436e+01 7.2582680725163371e+00 -1 0 0
1244 0 1 0.0000000000000000e+00 8.1953223055494853e+00 9.4011970033253434e+00 1.0532112325791054e+01 0 2 1
990 0 1 0.0000000000000000e+00 2.0524092302906936e+01 8.1545286470820333e-01 1.1427581881164256e+01 2 0 1
1710 0 1 0.0000000000000000e+00 6.5650004799090915e+00 6.1622182337124514e+00 1.4944310233207808e+01 -1 1 0
1661 0 1 0.0000000000000000e+00 2.5910357125756065e+01 8.4824008925647316e+00 3.0990822932777919e+00 1 0 1
674 0 1 0.0000000000000000e+00 8.1864717781416587e+00 5.9997635459149690e-01 1.1115286971589708e+01 -1 0 -1
782 0 1 0.0000000000000000e+00 2.9311969524526522e+00 9.8506968016756229e+00 1.0983424114146429e+00 2 1 0
902 0 1 0.0000000000000000e+00 3.0167753815965835e+01 4.5328891422101458e-01 7.8050975993722584e+00 -1 0 1
1832 0 1 0.0000000000000000e+00 2.9976960891914263e+01 -2.9163544397464897e-01 5.1979779820215901e+00 -1 1 1
1982 0 1 0.0000000000000000e+00 5.1245589891486212e+00 1.3833914719660557e+01 9.8659836343839356e+00 0 1 1
1997 0 1 0.0000000000000000e+00 1.1868470110932565e+00 6.2703774265092136e+00 9.5135479625390555e+00 0 -2 1
1061 0 1 0.0000000000000000e+00 1.7908570820954896e+01 4.1234681245261111e+00 7.4707051032502081e-03 1 0 -1
841 0 1 0.0000000000000000e+00 2.2168913704490226e+01 5.8335261705420494e-01 8.5363816692540233e+00 -1 1 -1
1278 0 1 0.0000000000000000e+00 1.4433676841270076e+01 1.6782235210476237e+00 2.3288148290115860e+00 2 2 0
62 0 1 0.0000000000000000e+00 1.2422002660782706e+01 1.4105151321902900e+01 7.5169370610984014e+00 1 -1 0
47 0 1 0.0000000000000000e+00 2.1173572102435251e+01 5.4438349885289350e+00 1.0705567980031837e+01 1 0 -1
599 0 1 0.0000000000000000e+00 5.7937186720369187e+00 4.9267095934617915e+00 8.9841334373875661e+00 0 -1 -1
1084 0 1 0.0000000000000000e+00 2.6129618674896693e+00 9.4631016978070566e+00 1.3366287108226434e+01 0 -1 1
1637 0 1 0.0000000000000000e+00 7.1363504187248816e-01 2.2448306730354601e+00 4.5929364365798397e+00 -1 -1 0
613 0 1 0.0000000000000000e+00 5.1439075804300813e+00 8.0292445096803480e+00 1.2722378736156831e+01 1 -2 1
226 0 1 0.0000000000000000e+00 3.2845476601586199e+01 1.0763239451100915e+01 4.4403888787375383e+00 -1 -1 0
319 0 1 0.0000000000000000e+00 4.1753701574738509e+00 3.6434409969385113e+00 1.5297310959058336e+01 0 2 -2
452 0 1 0.0000000000000000e+00 2.3635790473590859e+01 4.5524166802535513e+00 1.4557210866323653e+00 -2 1 0
475 0 1 0.0000000000000000e+00 2.2892147250354640e+01 7.1755290565547538e+00 3.2591717951024730e+00 2 0 0
1063 0 1 0.0000000000000000e+00 1.0843100872163516e+01 5.1878254796218490e+00 1.2090425598905236e+01 2 -1 1
620 0 1 0.0000000000000000e+00 3.2641808665926945e+01 7.0524857300864010e+00 1.1656783053704688e+01 -1 -1 -1
320 0 1 0.0000000000000000e+00 1.6729249945967325e+01 2.3398626319814477e+00 2.4216204794663549e+00 -1 0 -1
1574 0 1 0.0000000000000000e+00 1.8634740374578580e+01 8.1056436350541983e+00 6.7996143597368084e+00 -1 1 2
1810 0 1 0.0000000000000000e+00 2.0853188760754197e+01 8.2917019090712998e+00 8.4433071893328702e+00 1 0 1
1311 0 1 0.0000000000000000e+00 2.9246314081593843e+00 4.1601363349313578e+00 1.0024682955996926e+01 1 0 -2
1174 0 1 0.0000000000000000e+00 6.5033840750391834e+00 1.1799253504732333e+01 3.7417181355903519e+00 -2 0 0
1521 0 1 0.0000000000000000e+00 2.9945024234859940e+01 6.3054438577540051e+00 1.2331595875424350e-01 -2 1 0
635 0 1 0.0000000000000000e+00 2.3546570434250469e+01 1.1339774909702212e+01 3.4364478533400025e+00 0 0 1
1251 0 1 0.0000000000000000e+00 2.5389922569024879e+01 1.2771441473950146e+01 9.3226610693580447e+00 -2 0 -1
393 0 1 0.0000000000000000e+00 1.1121943716461361e+01 1.5240948222078318e+01 1.0315704210359918e+01 -1 -2 0
1021 0 1 0.0000000000000000e+00 1.4844978371980876e+01 1.1860156086204965e+01 4.6475230246589838e-05 0 -1 2
1986 0 1 0.0000000000000000e+00 2.5075650213834990e+01 1.4718313249955839e+01 3.9020182977013285e-01 0 0 1
1030 0 1 0.0000000000000000e+00 1.7152150062701818e+01 1.5876863958682989e+01 1.7353334674351750e-01 -1 0 0
191 0 1 0.0000000000000000e+00 2.5742433631600171e+01 3.1533821121434258e+00 1.2928588662547336e+00 2 1 0
1513 0 1 0.0000000000000000e+00 2.5351821784980825e+01 1.4870223338471519e+01 1.3071699632155092e+01 -1 1 1
912 0 1 0.0000000000000000e+00 2.6636660381969759e+00 7.0597223908943345e+00 3.1174697940975076e+00 1 -3 0
1930 0 1 0.0000000000000000e+00 3.0286158501569719e+01 1.0248049388021517e+01 1.2972898266220458e+01 0 -1 0
147 0 1 0.0000000000000000e+00 5.8530929134834864e+00 1.4375944257631163e+01 1.2188051425192164e+01 0 0 0
1878 0 1 0.0000000000000000e+00 2.0529614914425309e+01 1.0422033698116067e+01 -1.7575004168641439e-02 -1 1 0
141 0 1 0.0000000000000000e+00 5.0350941896867862e+00 8.6365221240038359e+00 1.5431942726558372e+01 1 0 -1
1666 0 1 0.0000000000000000e+00 2.9320270480952146e+00 3.4213208566187800e+00 1.2885401917745213e+01 0 0 2
1197 0 1 0.0000000000000000e+00 2.7596831421113386e+01 6.1359988230419322e+00 5.0883679147467182e+00 -1 0 1
1469 0 1 0.0000000000000000e+00 1.0000485746478807e+01 5.2119859012711043e+00 3.0971298293138871e+00 2 1 2
536 0 1 0.0000000000000000e+00 1.9732726020138308e+01 1.3057133186776031e+01 -6.8625626351431657e-02 -1 -1 0
1905 0 1 0.0000000000000000e+00 4.6087690868868263e+00 3.5833350938005704e-01 6.9607230507970934e+00 0 1 0
1279 0 1 0.0000000000000000e+00 1.9874409050607342e+00 1.1748143569568194e+01 1.4780661020367152e+01 2 -1 -1
460 0 1 0.0000000000000000e+00 1.1166941108314647e+01 8.7975677941219423e+00 8.7803446499198312e+00 0 -2 1
1762 0 1 0.0000000000000000e+00 1.4536321653718531e+01 6.1954878907314570e-01 1.1642688914599310e+01 -1 1 0
942 0 1 0.0000000000000000e+00 1.5746154586546628e+00 -3.7969129202941043e-02 6.6405135835758120e+00 -1 1 1
1698 0 1 0.0000000000000000e+00 2.9014949709175824e+01 4.2834186972486119e+00 9.9424846113391840e+00 -1 1 1
582 0 1 0.0000000000000000e+00 2.0255412596864279e+01 5.5931592618447210e+00 8.1095528899310327e+00 1 -2 1
1033 0 1 0.0000000000000000e+00 5.4259568862565484e+00 2.8063670689037656e+00 1.1205166345480899e+01 -1 1 -2
446 0 1 0.0000000000000000e+00 3.0403143840035934e+01 1.2821233722980454e+01 1.3714248185721395e+01 1 -2 0
19 0 1 0.0000000000000000e+00 5.8123235301971143e-01 1.2961425248787243e+01 1.1954670649753778e+01 2 0 -1
576 0 1 0.0000000000000000e+00 7.7368260732327041e+00 3.1528412271958315e+00 4.7882720932246166e+00 0 -1 -2
549 0 1 0.0000000000000000e+00 -2.4308101126804604e-01 9.9189801294517022e+00 1.2946071687520591e+01 0 0 0
1137 0 1 0.0000000000000000e+00 7.1404225799426007e+00 2.1039999793448354e+00 9.0997913316786452e+00 2 0 0
598 0 1 0.0000000000000000e+00 1.2261965696338644e+01 5.9396203779813392e+00 1.8871007451832127e+00 0 1 -1
168 0 1 0.0000000000000000e+00 1.6680343220532233e+01 1.4339952636706927e+00 9.5325061129360495e+00 1 0 0
670 0 1 0.0000000000000000e+00 2.4652194965162895e+01 7.0798074526455537e+00 1.4934554376068325e+01 0 0 1
1277 0 1 0.0000000000000000e+00 3.2238443508185767e+01 4.8141897801209454e+00 1.3566491924029874e+01 -3 -1 1
419 0 1 0.0000000000000000e+00 3.0621667738104051e+01 1.6142571687628923e+01 4.0859317635156174e+00 0 1 2
2009 0 1 0.0000000000000000e+00 2.5726007941462861e+01 6.2461307143366014e+00 8.1789249054820417e+00 -1 -1 0
366 0 1 0.0000000000000000e+00 5.4638413227902403e+00 1.5628657547421877e+01 2.0623938761138976e+00 0 0 1
772 0 1 0.0000000000000000e+00 2.4877935392889288e+01 6.7752949173323485e+00 5.3973717014693676e+00 -1 -1 3
1206 0 1 0.0000000000000000e+00 2.7483407245153519e+01 1.0903936401466428e+01 1.9254975229962805e+00 1 -1 1
86 0 1 0.0000000000000000e+00 2.7982525538404595e+01 1.1426693491573099e+01 1.3501916448571857e+01 0 1 -1
1273 0 1 0.0000000000000000e+00 3.2411614343534552e+01 7.7791027985898431e+00 1.4279224024581390e+01 0 2 1
1831 0 1 0.0000000000000000e+00 3.1805311131223890e+00 1.0384164497212565e+00 1.1004810745892261e+01 -1 0 1
1920 0 1 0.0000000000000000e+00 3.8471183637636850e+00 2.4286350136351125e+00 8.3549255524406494e+00 2 2 0
1247 0 1 0.0000000000000000e+00 1.8377272046652273e+01 3.0600528710533457e+00 1.3467398281821731e+01 1 0 0
1650 0 1 0.0000000000000000e+00 2.8887900324592401e+01 4.2518634562586364e+00 1.2649774126308266e+01 1 0 0
565 0 1 0.0000000000000000e+00 1.1105124218475066e+01 9.2912419984573891e+00 6.2088449168376316e+00 -2 0 0
1476 0 1 0.0000000000000000e+00 1.4527445721331294e+01 1.2757933416364491e+01 8.7035476820701643e+00 0 0 0
2039 0 1 0.0000000000000000e+00 2.6848707961215517e+01 3.3855955994463027e-01 -4.2783300438397448e-01 -1 -1 1
456 0 1 0.0000000000000000e+00 2.7892083773579969e+01 1.4206414710216642e+01 1.3940081097835842e+01 -1 0 -1
1336 0 1 0.0000000000000000e+00 9.5890487954711769e+00 7.3534652874930906e+00 1.4499574054232749e+01 1 -1 0
740 0 1 0.0000000000000000e+00 7.7847818286776533e+00 7.0848772456077924e+00 1.2354811436324125e+01 -2 2 0
113 0 1 0.0000000000000000e+00 2.2251995683021480e+01 1.2613837069607506e+01 -6.5985167488352325e-01 2 1 -1
1205 0 1 0.0000000000000000e+00 1.4698975446202681e+01 1.3398118920435826e+01 5.7023613992526592e+00 2 0 -1
101 0 1 0.0000000000000000e+00 7.9980732952209621e+00 1.5081264306901078e+01 2.7842855204997443e+00 0 1 3
828 0 1 0.0000000000000000e+00 5.2161402421545393e+00 2.9155000755597467e+00 3.4046349875514883e+00 0 1 1
822 0 1 0.0000000000000000e+00 4.5587277811968963e-01 1.4906687662235585e+01 8.0516775191749712e+00 1 0 1
1024 0 1 0.0000000000000000e+00 3.3013133722147941e+01 1.2578963542764582e+01 1.4077204868749909e+01 -2 2 1
1899 0 1 0.0000000000000000e+00 1.6428414635321424e+01 1.1462827613823798e+01 3.4978676893106302e+00 0 1 0
78 0 1 0.0000000000000000e+00 3.1974561672503622e+01 4.5345114094180605e+00 1.0890145418184584e+01 -3 -1 0
200 0 1 0.0000000000000000e+00 1.1819670852721158e+01 1.7248826046206420e+00 8.0836250800596900e+00 0 2 0
1453 0 1 0.0000000000000000e+00 1.8941641165395200e+01 5.6444544330428092e+00 1.5025552163379190e+01 0 0 1
1129 0 1 0.0000000000000000e+00 2.3727199909551921e+01 1.0229423474135675e+01 1.0966859243189470e+01 1 1 1
260 0 1 0.0000000000000000e+00 3.0406481338672606e+01 2.0980303598204122e+00 1.1975509161104258e+01 0 0 -1
1622 0 1 0.0000000000000000e+00 7.8341521778252634e+00 1.1428423641200521e+01 1.5506519029133610e+01 2 0 0
850 0 1 0.0000000000000000e+00 2.7135207460288679e+01 1.3476607808114283e+01 1.1266446700449821e+01 -1 2 1
898 0 1 0.0000000000000000e+00 1.8992739754632488e+01 1.4408889066108646e+01 7.3320300721005456e+00 0 0 1
379 0 1 0.0000000000000000e+00 1.2544598924234780e+01 8.6071977338753598e+00 2.3653702947712025e+00 0 1 -2
136 0 1 0.0000000000000000e+00 1.0356139909382335e+01 1.4120986069287648e+01 3.8601199947857898e+00 0 1 -1
1524 0 1 0.0000000000000000e+00 1.5227852737915539e+01 1.5862717260076295e+01 4.5432747178026522e+00 0 0 0
1456 0 1 0.0000000000000000e+00 3.0248175342663714e+01 1.3895017146017011e+01 8.5466873661493707e+00 0 0 0
1946 0 1 0.0000000000000000e+00 -7.2156884566628776e-01 1.0228371962306033e+01 7.0663857611316017e+00 -1 -1 1
632 0 1 0.0000000000000000e+00 2.2995641386120187e+01 1.2711170088728164e+01 1.0688248033371055e+01 0 0 0
335 0 1 0.0000000000000000e+00 1.1709448059269073e+01 1.2998447085354870e+01 9.8740041763634112e-01 -1 0 0
1830 0 1 0.0000000000000000e+00 1.7428910454853099e+01 1.0549037947924502e+01 1.4997650715786657e+01 1 0 0
1980 0 1 0.0000000000000000e+00 1.7534560730419468e+01 4.8666751643464812e-01 6.5918865264817645e+00 0 0 0
307 0 1 0.0000000000000000e+00 7.4881077291735423e+00 5.9055264026198753e+00 1.4939717123641834e+00 0 -1 -2
520 0 1 0.0000000000000000e+00 3.1757666923395899e+01 1.0302337279713138e+01 1.5158431194163350e+01 0 -1 0
931 0 1 0.0000000000000000e+00 3.1230258115373797e+01 2.2851798283920686e+00 5.9060849784171623e+00 -1 -1 0
552 0 1 0.0000000000000000e+00 2.4054801354886255e+01 5.2041076569575777e+00 1.0149094844815615e+01 -2 0 0