LAMMPS data file via write_data, version 31 Mar 2017, timestep = 150000

2000 atoms
1 atom types

-5.3967084544146537e-01 3.2539670845086214e+01 xlo xhi
-5.3967084544146537e-01 3.2539670845086214e+01 ylo yhi
-5.3967084544146537e-01 3.2539670845086214e+01 zlo zhi
0.0000000000000000e+00 0.0000000000000000e+00 0.0000000000000000e+00 xy xz yz

Masses

1 26.9815

Atoms # full

57 0 1 0.0000000000000000e+00 2.5855853279971299e+01 5.1367482823000392e+00 2.7375177579709253e-01 0 0 0
2 0 1 0.0000000000000000e+00 1.3530220487837770e+00 9.4128705808347446e-01 1.1228809011211542e+00 0 0 0
581 0 1 0.0000000000000000e+00 3.2399358492597784e+01 1.2329521022814689e+01 1.5804047412377583e+01 -1 0 0
4 0 1 0.0000000000000000e+00 3.9195273968565028e+00 5.5323209797384099e-01 4.3618669661802989e-01 0 0 0
500 0 1 0.0000000000000000e+00 3.1181254548917167e+01 1.3630506964985914e+01 1.3787893960876634e+01 0 0 0
6 0 1 0.0000000000000000e+00 8.3276804454449227e+00 9.1067654650176189e-01 1.3939006189335883e+00 0 0 0
557 0 1 0.0000000000000000e+00 2.5949164484784447e+01 6.3070047931087387e+00 1.5843331496632080e+01 0 0 0
8 0 1 0.0000000000000000e+00 1.1110459452202580e+01 7.2631334962727068e-01 1.1180539247344163e+00 0 0 0
589 0 1 0.0000000000000000e+00 1.2856372030907895e+01 1.2580879755140881e+01 1.5496863894177322e+01 0 0 0
10 0 1 0.0000000000000000e+00 1.4263865633252783e+01 8.1873019052023466e-01 7.0944742889252121e-01 0 0 0
1511 0 1 0.0000000000000000e+00 1.5892301858579943e+01 1.5806975383213393e+01 1.5635109114534201e+01 0 0 0
12 0 1 0.0000000000000000e+00 1.7386993976806323e+01 4.9512031011587632e-01 1.2929948983074633e+00 0 0 0
499 0 1 0.0000000000000000e+00 2.9225472513089898e+01 1.2512067731142542e+01 1.2260465309696462e+01 0 0 0
14 0 1 0.0000000000000000e+00 2.0744292211108458e+01 7.3155260799014310e-01 4.2168967485204845e-01 0 0 0
498 0 1 0.0000000000000000e+00 2.7805849209039657e+01 1.4310314262691360e+01 1.3714760338240152e+01 0 0 0
16 0 1 0.0000000000000000e+00 2.3826258024094493e+01 5.4941065828846924e-01 1.4683416972657852e+00 0 0 0
77 0 1 0.0000000000000000e+00 2.5685501388709469e+01 9.4430083733305885e+00 -4.2171273677643484e-01 0 0 0
18 0 1 0.0000000000000000e+00 2.7519166688791920e+01 1.1873653781427016e+00 7.8075767720532574e-01 0 0 0
63 0 1 0.0000000000000000e+00 2.8236485156838871e+00 9.3667885527731922e+00 9.4547933465326528e-03 0 0 0
20 0 1 0.0000000000000000e+00 3.1186855843701608e+01 9.5663169615866894e-01 1.1343117871821737e+00 0 0 0
569 0 1 0.0000000000000000e+00 1.2504615641212881e+01 9.2804702258656206e+00 1.5599949727126399e+01 0 0 0
22 0 1 0.0000000000000000e+00 9.8998544101836661e-01 4.1073340933781193e+00 1.4162624201925313e+00 0 0 0
553 0 1 0.0000000000000000e+00 1.9116403518067571e+01 6.0528829607446406e+00 1.5551091713761659e+01 0 0 0
24 0 1 0.0000000000000000e+00 4.2968204936494763e+00 3.6655141610567021e+00 9.0452535869265249e-01 0 0 0
1509 0 1 0.0000000000000000e+00 1.2693644525833625e+01 1.5883296614225712e+01 1.5786071880731813e+01 0 0 0
26 0 1 0.0000000000000000e+00 7.4794737249334720e+00 3.9973055289784218e+00 1.0687477544836170e+00 0 0 0
593 0 1 0.0000000000000000e+00 1.9330591694264562e+01 1.3053455716684507e+01 1.5866570075252840e+01 0 0 0
28 0 1 0.0000000000000000e+00 1.1391782249886560e+01 4.6936850429076191e+00 1.1544832788515140e+00 0 0 0
303 0 1 0.0000000000000000e+00 2.5516141183808192e+00 -4.0508043845883696e-01 9.5391993522817504e+00 0 0 0
30 0 1 0.0000000000000000e+00 1.4221719349241367e+01 3.9456708484040641e+00 1.0509107847290957e+00 0 0 0
61 0 1 0.0000000000000000e+00 3.2266991967038088e+01 9.3244649266686110e+00 -2.3295935589908795e-01 -1 0 0
32 0 1 0.0000000000000000e+00 1.7636677247402844e+01 3.9927067186203082e+00 5.9766104624585781e-01 0 0 0
75 0 1 0.0000000000000000e+00 2.3032849639339432e+01 9.3663789532880095e+00 -7.5665769878953515e-02 0 0 0
34 0 1 0.0000000000000000e+00 2.0513642981521656e+01 4.0468717822104674e+00 1.1727404097654481e+00 0 0 0
319 0 1 0.0000000000000000e+00 2.9497283427228268e+01 -3.2097070497392177e-01 9.8208977236749764e+00 0 0 0
36 0 1 0.0000000000000000e+00 2.3666915328226963e+01 3.6657581261724399e+00 1.4516861575731890e+00 0 0 0
565 0 1 0.0000000000000000e+00 6.3609910681523365e+00 9.1408864591480157e+00 1.5608296825381023e+01 0 0 0
38 0 1 0.0000000000000000e+00 2.7991212932215326e+01 3.6956323735578183e+00 1.0490923101957839e+00 0 0 0
67 0 1 0.0000000000000000e+00 9.8066753043772525e+00 9.5917901654650795e+00 -2.2792374942441979e-01 0 0 0
40 0 1 0.0000000000000000e+00 3.0741431257391241e+01 4.1917386697637919e+00 9.0072115094343697e-01 0 0 0
407 0 1 0.0000000000000000e+00 9.9434877191354047e+00 -2.7553799989603905e-01 1.2731712134762951e+01 0 0 0
42 0 1 0.0000000000000000e+00 1.1790783588567240e+00 7.7630953699916816e+00 1.4633766957515641e+00 0 0 0
83 0 1 0.0000000000000000e+00 2.5774956775386926e+00 1.2448932421775567e+01 -3.1515630705600217e-01 0 0 0
44 0 1 0.0000000000000000e+00 4.8388103573124486e+00 7.8191404146021224e+00 1.0886265755040900e+00 0 0 0
81 0 1 0.0000000000000000e+00 -4.0450316394764446e-01 1.2483482690074110e+01 -1.0510072652418234e-01 0 0 0
46 0 1 0.0000000000000000e+00 7.9769759605889590e+00 7.8083393111165798e+00 1.0572837538048325e+00 0 0 0
95 0 1 0.0000000000000000e+00 2.2948044059856848e+01 1.2651826624937978e+01 -1.3540538383130296e-02 0 0 0
48 0 1 0.0000000000000000e+00 1.1393687026579865e+01 7.4125673654697968e+00 8.8534169254678186e-01 0 0 0
537 0 1 0.0000000000000000e+00 2.6191650558399793e+01 3.1311237445781903e+00 1.5766215619748140e+01 0 0 0
50 0 1 0.0000000000000000e+00 1.4212625221705858e+01 7.6408562805666058e+00 1.2198007770723664e+00 0 0 0
29 0 1 0.0000000000000000e+00 1.2498394004725283e+01 2.4450267369047833e+00 -3.0051300571958861e-01 0 0 0
52 0 1 0.0000000000000000e+00 1.7390984990772850e+01 7.5986772903653481e+00 1.0159547456042304e+00 0 0 0
523 0 1 0.0000000000000000e+00 3.0701477331911966e+00 2.9155940438731998e+00 1.5733491767817084e+01 0 0 0
54 0 1 0.0000000000000000e+00 2.0561291006914637e+01 7.4790395235551212e+00 1.3005371347771308e+00 0 0 0
1119 0 1 0.0000000000000000e+00 2.9134016336315760e+01 1.5844829689645485e+01 2.6544353332358370e+00 0 0 0
56 0 1 0.0000000000000000e+00 2.4221060086943034e+01 7.3080234439915186e+00 1.4446757157750643e+00 0 0 0
97 0 1 0.0000000000000000e+00 2.6036768357110198e+01 1.2392736584328528e+01 -2.1535729655250074e-01 0 0 0
58 0 1 0.0000000000000000e+00 2.7004748950551111e+01 7.5054275093957816e+00 1.3837030090195410e+00 0 0 0
587 0 1 0.0000000000000000e+00 9.5143322249776876e+00 1.2565176617483266e+01 1.5772649439983125e+01 0 0 0
60 0 1 0.0000000000000000e+00 3.0679256880081319e+01 7.3093882529551042e+00 1.3666801647480806e+00 0 0 0
555 0 1 0.0000000000000000e+00 2.2393188139438962e+01 5.6966946029822738e+00 1.5854818555482579e+01 0 0 0
62 0 1 0.0000000000000000e+00 8.6496982100651287e-01 1.0670498515117020e+01 1.2576155794652286e+00 0 0 0
1301 0 1 0.0000000000000000e+00 -3.1425841764420526e-01 1.5704025054416308e+01 9.3919572325158658e+00 0 0 0
64 0 1 0.0000000000000000e+00 4.2709301293204769e+00 1.1457057779842053e+01 1.5556020386112994e+00 0 0 0
1317 0 1 0.0000000000000000e+00 2.5417929841845833e+01 1.5857851950117288e+01 8.7946500981015561e+00 0 0 0
66 0 1 0.0000000000000000e+00 8.4531509141843948e+00 1.0653152601090150e+01 1.7653014032869008e+00 0 0 0
1503 0 1 0.0000000000000000e+00 2.1029358417684771e+00 1.5032000525002527e+01 1.5550342952244771e+01 0 0 0
68 0 1 0.0000000000000000e+00 1.1122634764814332e+01 1.1719161809424202e+01 1.0050963175042174e+00 0 0 0
79 0 1 0.0000000000000000e+00 2.8853996773224637e+01 9.2735906490961035e+00 -4.2389663432011049e-01 0 0 0
70 0 1 0.0000000000000000e+00 1.4108967508705749e+01 1.1650356073431345e+01 9.5260993435238017e-01 0 0 0
59 0 1 0.0000000000000000e+00 2.8849206736177138e+01 5.8399831355902636e+00 -2.5645226400828330e-01 0 0 0
72 0 1 0.0000000000000000e+00 1.8180957849360759e+01 1.1662078654514032e+01 1.1178745939972967e+00 0 0 0
505 0 1 0.0000000000000000e+00 5.8403320410670068e+00 -3.7000989830894382e-01 1.5638829180756405e+01 0 0 0
74 0 1 0.0000000000000000e+00 2.1059183407387017e+01 1.1010773689447806e+01 1.4968382633328070e+00 0 0 0
595 0 1 0.0000000000000000e+00 2.2711490581293923e+01 1.2884945305228264e+01 1.5805694836416871e+01 0 0 0
76 0 1 0.0000000000000000e+00 2.4551621557189996e+01 1.0796421831747256e+01 1.5321045943304390e+00 0 0 0
480 0 1 0.0000000000000000e+00 3.1148934227495715e+01 1.0858867150183517e+01 1.3938447900072804e+01 0 0 0
78 0 1 0.0000000000000000e+00 2.7385771778070449e+01 1.0833565113537475e+01 1.4209320830881476e+00 0 0 0
479 0 1 0.0000000000000000e+00 2.9470551171270536e+01 8.9929934582601749e+00 1.2606707755287736e+01 0 0 0
80 0 1 0.0000000000000000e+00 3.0797664700186061e+01 1.1071187779724047e+01 1.3421303105768381e+00 0 0 0
471 0 1 0.0000000000000000e+00 1.6527481626672746e+01 9.4085022204659001e+00 1.2378967104373965e+01 0 0 0
82 0 1 0.0000000000000000e+00 1.0466662259338808e+00 1.4587795531628942e+01 1.1032945456604113e+00 0 0 0
478 0 1 0.0000000000000000e+00 2.7546710950197159e+01 1.0705341140293672e+01 1.3874350653948571e+01 0 0 0
84 0 1 0.0000000000000000e+00 4.1699012949209786e+00 1.4149908512985679e+01 1.2571536055244099e+00 0 0 0
470 0 1 0.0000000000000000e+00 1.4772039938397002e+01 1.0621695526633919e+01 1.4233534812507841e+01 0 0 0
86 0 1 0.0000000000000000e+00 6.9915841078004108e+00 1.4451834961204822e+01 1.0258298393531229e+00 0 0 0
1405 0 1 0.0000000000000000e+00 5.9676008257689528e+00 1.5484757654112370e+01 1.2724453922482951e+01 0 0 0
88 0 1 0.0000000000000000e+00 1.1531391735872916e+01 1.4188982791395679e+01 1.1136349072386293e+00 0 0 0
477 0 1 0.0000000000000000e+00 2.5605061105136137e+01 9.0455855142699857e+00 1.2121288344607386e+01 0 0 0
90 0 1 0.0000000000000000e+00 1.4388533851442144e+01 1.4836136366141524e+01 1.1767119346580051e+00 0 0 0
476 0 1 0.0000000000000000e+00 2.4471650732532744e+01 1.0663227406550376e+01 1.4025806536972253e+01 0 0 0
92 0 1 0.0000000000000000e+00 1.7885320430343285e+01 1.4730140280890476e+01 1.3026396381451788e+00 0 0 0
475 0 1 0.0000000000000000e+00 2.2637433829034670e+01 9.3070218852504834e+00 1.2573525807369172e+01 0 0 0
94 0 1 0.0000000000000000e+00 2.1153381921039696e+01 1.4702686895843648e+01 1.0356599890225493e+00 0 0 0
469 0 1 0.0000000000000000e+00 1.2582401494239672e+01 9.5306903730702910e+00 1.2150051449565574e+01 0 0 0
96 0 1 0.0000000000000000e+00 2.4302683293893907e+01 1.4448487585431888e+01 1.0667461847331163e+00 0 0 0
474 0 1 0.0000000000000000e+00 2.0635567509443440e+01 1.0983910321579385e+01 1.3803906052425230e+01 0 0 0
98 0 1 0.0000000000000000e+00 2.7014242997571280e+01 1.4675968997556366e+01 1.0969481603867317e+00 0 0 0
473 0 1 0.0000000000000000e+00 1.9359713710323419e+01 9.1102497881876641e+00 1.2401117504470157e+01 0 0 0
100 0 1 0.0000000000000000e+00 3.0877304844950991e+01 1.4186396717269854e+01 1.0944756597528749e+00 0 0 0
468 0 1 0.0000000000000000e+00 1.0889803531265564e+01 1.1114847400228513e+01 1.3818462056617317e+01 0 0 0
102 0 1 0.0000000000000000e+00 1.4128770094554584e+00 1.0059561608529062e+00 4.1926909408127351e+00 0 0 0
99 0 1 0.0000000000000000e+00 2.9111225894252918e+01 1.2988213559400867e+01 -5.1152274216173688e-01 0 0 0
104 0 1 0.0000000000000000e+00 4.0256127426683390e+00 3.7420340927841222e-01 4.1201919053249769e+00 0 0 0
1415 0 1 0.0000000000000000e+00 2.2114108967625988e+01 1.5837428337595609e+01 1.2158442280197113e+01 0 0 0
106 0 1 0.0000000000000000e+00 7.9445209904009513e+00 6.2993961357476880e-01 4.8146372019314034e+00 0 0 0
41 0 1 0.0000000000000000e+00 -4.0012551523495821e-01 5.9263395576194826e+00 -2.5469056471693002e-01 0 0 0
108 0 1 0.0000000000000000e+00 1.0595817679230079e+01 9.2614988027101153e-01 4.0562938848701799e+00 0 0 0
497 0 1 0.0000000000000000e+00 2.5855227173862424e+01 1.2817246456403735e+01 1.2388696836050707e+01 0 0 0
110 0 1 0.0000000000000000e+00 1.4093183055919038e+01 1.0503992062468266e+00 4.8691605905492494e+00 0 0 0
496 0 1 0.0000000000000000e+00 2.3941745826568329e+01 1.4172472694660788e+01 1.3631537042414816e+01 0 0 0
112 0 1 0.0000000000000000e+00 1.7890125882569244e+01 6.2524399361581384e-02 4.3248487427778359e+00 0 0 0
467 0 1 0.0000000000000000e+00 9.4017685870516861e+00 9.0115640995842714e+00 1.2663243181257883e+01 0 0 0
114 0 1 0.0000000000000000e+00 2.0847740016024879e+01 5.5272292495769926e-01 4.8157817101258349e+00 0 0 0
495 0 1 0.0000000000000000e+00 2.2479609895948592e+01 1.2195742390668693e+01 1.2410299155313776e+01 0 0 0
116 0 1 0.0000000000000000e+00 2.4123240732779635e+01 7.2913849252282836e-01 4.4807891356364342e+00 0 0 0
466 0 1 0.0000000000000000e+00 8.0489128883805048e+00 1.1115279081151021e+01 1.3886953011595946e+01 0 0 0
118 0 1 0.0000000000000000e+00 2.7292869445077166e+01 1.2676561253076886e+00 4.2686946168096949e+00 0 0 0
101 0 1 0.0000000000000000e+00 3.2289738817755214e+01 -3.7891439791281500e-01 3.1940078357343449e+00 -1 0 0
120 0 1 0.0000000000000000e+00 3.0444198716420495e+01 1.1094363013267381e+00 4.7821528427805191e+00 0 0 0
121 0 1 0.0000000000000000e+00 3.2358872441770117e+01 2.6449343168404242e+00 3.0839611254456196e+00 -1 0 0
122 0 1 0.0000000000000000e+00 1.0771168795559956e+00 4.0724078053015962e+00 4.3274780067072705e+00 0 0 0
123 0 1 0.0000000000000000e+00 2.9665048927943585e+00 2.6041590878080432e+00 2.8828560932481726e+00 0 0 0
124 0 1 0.0000000000000000e+00 4.6930468155836031e+00 3.8232974183868356e+00 4.4821381986528719e+00 0 0 0
125 0 1 0.0000000000000000e+00 5.7657311598352745e+00 1.9530822424826706e+00 2.8162211523243856e+00 0 0 0
126 0 1 0.0000000000000000e+00 7.2709766596194525e+00 3.7120367746636127e+00 4.4131600147207592e+00 0 0 0
127 0 1 0.0000000000000000e+00 9.4909810445196943e+00 2.8713848511719071e+00 2.5395050649744122e+00 0 0 0
128 0 1 0.0000000000000000e+00 1.1386767208645557e+01 4.4630832425007565e+00 3.9644483459597595e+00 0 0 0
129 0 1 0.0000000000000000e+00 1.3050791341862034e+01 2.1902000926648904e+00 2.6342720229673993e+00 0 0 0
130 0 1 0.0000000000000000e+00 1.4271888936775040e+01 3.8058959942930999e+00 4.6566030893217905e+00 0 0 0
131 0 1 0.0000000000000000e+00 1.6268000813078679e+01 2.1292588382327531e+00 3.3268567279435981e+00 0 0 0
132 0 1 0.0000000000000000e+00 1.7468482312714237e+01 4.2169866029945382e+00 4.8300907413436160e+00 0 0 0
133 0 1 0.0000000000000000e+00 1.8986092100229733e+01 2.0842106671147649e+00 2.5605271010774540e+00 0 0 0
134 0 1 0.0000000000000000e+00 2.0307963837556080e+01 3.6102251151477907e+00 4.2841016191574024e+00 0 0 0
135 0 1 0.0000000000000000e+00 2.1660268170235305e+01 2.1308112093978764e+00 2.3226576230100862e+00 0 0 0
136 0 1 0.0000000000000000e+00 2.4038671379586859e+01 3.8426800260722853e+00 4.5327190702838642e+00 0 0 0
137 0 1 0.0000000000000000e+00 2.5899182063806442e+01 2.4802757191909217e+00 2.5167690306053223e+00 0 0 0
138 0 1 0.0000000000000000e+00 2.7147375281052071e+01 3.7607448344199224e+00 4.6435384411765108e+00 0 0 0
139 0 1 0.0000000000000000e+00 2.9185298610574677e+01 2.3145478751831257e+00 2.7171976676962877e+00 0 0 0
140 0 1 0.0000000000000000e+00 3.0555602698686357e+01 4.1031899460054673e+00 4.6019345279549393e+00 0 0 0
141 0 1 0.0000000000000000e+00 -5.1096545124658521e-01 5.8977831440179393e+00 2.7712055138219895e+00 0 0 0
142 0 1 0.0000000000000000e+00 1.0804185529229737e+00 7.3359445849514744e+00 4.2482424504811700e+00 0 0 0
143 0 1 0.0000000000000000e+00 3.3377690763098626e+00 5.3867272758791991e+00 2.7935515350482119e+00 0 0 0
144 0 1 0.0000000000000000e+00 4.8521864995758257e+00 7.4114861122472577e+00 4.4765052924625364e+00 0 0 0
145 0 1 0.0000000000000000e+00 5.9490201777525202e+00 5.6399825679050748e+00 2.7176499886339096e+00 0 0 0
146 0 1 0.0000000000000000e+00 7.6229791962983704e+00 7.4965065313933046e+00 4.0112425897966864e+00 0 0 0
147 0 1 0.0000000000000000e+00 9.4349488709237566e+00 5.7295679615943191e+00 2.5733400307650687e+00 0 0 0
148 0 1 0.0000000000000000e+00 1.1229012099500615e+01 7.3638962217609141e+00 4.1181022850123270e+00 0 0 0
149 0 1 0.0000000000000000e+00 1.3717198590113309e+01 5.7689332562683369e+00 2.9375718649029490e+00 0 0 0
150 0 1 0.0000000000000000e+00 1.3999824209597362e+01 8.0138445656624686e+00 4.2101137259437582e+00 0 0 0
151 0 1 0.0000000000000000e+00 1.6153666462698268e+01 4.9503406215989267e+00 2.5472976494400053e+00 0 0 0
152 0 1 0.0000000000000000e+00 1.7579847373538747e+01 7.7116434391565942e+00 4.1799413269044416e+00 0 0 0
153 0 1 0.0000000000000000e+00 1.8737149589423716e+01 5.7625396549197507e+00 2.7508597633626284e+00 0 0 0
154 0 1 0.0000000000000000e+00 2.0862809578929074e+01 7.6706462434535982e+00 4.3469964440809363e+00 0 0 0
155 0 1 0.0000000000000000e+00 2.2433153393873447e+01 5.7772778532270364e+00 2.7975907133018669e+00 0 0 0
156 0 1 0.0000000000000000e+00 2.3911974824909123e+01 7.0306942608913854e+00 4.6905410307644146e+00 0 0 0
157 0 1 0.0000000000000000e+00 2.5920134992471823e+01 5.9275146873791655e+00 3.3058550373238376e+00 0 0 0
158 0 1 0.0000000000000000e+00 2.7623646744392936e+01 7.2646399996715303e+00 4.6985348311738084e+00 0 0 0
159 0 1 0.0000000000000000e+00 2.9017960722272420e+01 5.6855196964995285e+00 2.7536233527453318e+00 0 0 0
160 0 1 0.0000000000000000e+00 3.0442891037918990e+01 7.3243880621375528e+00 4.5623108029947090e+00 0 0 0
161 0 1 0.0000000000000000e+00 3.2085276420769915e+01 9.1268901949894428e+00 2.7831728088244523e+00 -1 0 0
162 0 1 0.0000000000000000e+00 8.2122488501918789e-01 1.0552076355972025e+01 4.1771180500600638e+00 0 0 0
163 0 1 0.0000000000000000e+00 2.9044744645019183e+00 9.2208782452421971e+00 3.0950884172678559e+00 0 0 0
164 0 1 0.0000000000000000e+00 4.6579383043624789e+00 1.0921546402790851e+01 4.4728023742211072e+00 0 0 0
165 0 1 0.0000000000000000e+00 6.1902435826008517e+00 9.5382386952121667e+00 3.0177118526837843e+00 0 0 0
166 0 1 0.0000000000000000e+00 7.9282518472377852e+00 1.1125676592749327e+01 4.5801732277173492e+00 0 0 0
167 0 1 0.0000000000000000e+00 9.7241134699021110e+00 9.0748282909557698e+00 3.1258017994030665e+00 0 0 0
168 0 1 0.0000000000000000e+00 1.0754139528972262e+01 1.1571775135967149e+01 4.5740139361109176e+00 0 0 0
169 0 1 0.0000000000000000e+00 1.2715979960855341e+01 9.8658250730689812e+00 2.7939554267852200e+00 0 0 0
170 0 1 0.0000000000000000e+00 1.4585636508128436e+01 1.1244049158174811e+01 4.3224121893419767e+00 0 0 0
171 0 1 0.0000000000000000e+00 1.5610071686150887e+01 9.5719286467363318e+00 2.4771310643312381e+00 0 0 0
172 0 1 0.0000000000000000e+00 1.7720394118478033e+01 1.1048162449511349e+01 4.3089295170114728e+00 0 0 0
173 0 1 0.0000000000000000e+00 1.9088688888324370e+01 9.2110346035856701e+00 2.5541520873982129e+00 0 0 0
174 0 1 0.0000000000000000e+00 2.0789128160031318e+01 1.1376806541003448e+01 4.3096132769396398e+00 0 0 0
175 0 1 0.0000000000000000e+00 2.2491993528722958e+01 9.4016662510136371e+00 3.0386357988791697e+00 0 0 0
176 0 1 0.0000000000000000e+00 2.4445771422307814e+01 1.1338617883008384e+01 4.4602724062523711e+00 0 0 0
177 0 1 0.0000000000000000e+00 2.5509904848117273e+01 9.0149421231476001e+00 3.2384681597996865e+00 0 0 0
178 0 1 0.0000000000000000e+00 2.7425861552851551e+01 1.0891961755502699e+01 4.2671446273284817e+00 0 0 0
179 0 1 0.0000000000000000e+00 2.9010232585303683e+01 8.9702497562700998e+00 2.7816447027882818e+00 0 0 0
180 0 1 0.0000000000000000e+00 3.0782182521448526e+01 1.1216643031415085e+01 4.1983665713476448e+00 0 0 0
181 0 1 0.0000000000000000e+00 -4.2370183227624203e-01 1.2820815007023803e+01 3.1145876322119590e+00 0 0 0
182 0 1 0.0000000000000000e+00 1.2656045878497080e+00 1.4667796924797701e+01 4.3436773469475103e+00 0 0 0
183 0 1 0.0000000000000000e+00 2.2235055382923328e+00 1.2666354025438538e+01 2.7706285553620869e+00 0 0 0
184 0 1 0.0000000000000000e+00 4.1915049339660131e+00 1.3667392912486690e+01 4.2944987389256433e+00 0 0 0
185 0 1 0.0000000000000000e+00 6.3625211050901527e+00 1.2521177585283688e+01 2.8712978722660223e+00 0 0 0
186 0 1 0.0000000000000000e+00 7.7933782060918340e+00 1.4866771851681833e+01 4.1565099776107459e+00 0 0 0
187 0 1 0.0000000000000000e+00 9.4255876087572297e+00 1.3129084025777455e+01 2.6917333307597873e+00 0 0 0
188 0 1 0.0000000000000000e+00 1.1271656498950664e+01 1.4974062113317357e+01 4.5540042121068405e+00 0 0 0
189 0 1 0.0000000000000000e+00 1.2492319791907414e+01 1.2772208698323853e+01 3.1874225366615900e+00 0 0 0
190 0 1 0.0000000000000000e+00 1.4547951108694821e+01 1.5457825008274844e+01 3.9805828859281291e+00 0 0 0
191 0 1 0.0000000000000000e+00 1.6158939305173433e+01 1.2929593766363277e+01 2.9081721716939661e+00 0 0 0
192 0 1 0.0000000000000000e+00 1.7889335393461252e+01 1.4836486620698967e+01 4.1499808452675095e+00 0 0 0
193 0 1 0.0000000000000000e+00 1.9676702371809803e+01 1.3305533808663359e+01 2.8789572654319548e+00 0 0 0
194 0 1 0.0000000000000000e+00 2.1702968726599565e+01 1.4941068774242527e+01 4.5607041093292295e+00 0 0 0
195 0 1 0.0000000000000000e+00 2.2227869497515556e+01 1.3056475857030927e+01 3.0868344153652232e+00 0 0 0
196 0 1 0.0000000000000000e+00 2.4530342610846631e+01 1.4378562718086194e+01 4.7063970818420779e+00 0 0 0
197 0 1 0.0000000000000000e+00 2.5821150837390498e+01 1.2996266976767012e+01 2.8197908497562385e+00 0 0 0
198 0 1 0.0000000000000000e+00 2.7770043727650723e+01 1.4200010520350308e+01 4.7843153095928379e+00 0 0 0
199 0 1 0.0000000000000000e+00 2.8910797499199504e+01 1.2965192433553144e+01 2.6286393790148965e+00 0 0 0
200 0 1 0.0000000000000000e+00 3.0631488158117364e+01 1.4190438466531679e+01 4.2448214689556254e+00 0 0 0
465 0 1 0.0000000000000000e+00 6.5801209449848326e+00 9.4456207208026299e+00 1.2744246249519325e+01 0 0 0
202 0 1 0.0000000000000000e+00 1.1304011818341868e+00 1.1595786513164710e+00 7.6981948084107490e+00 0 0 0
464 0 1 0.0000000000000000e+00 4.2661509223314340e+00 1.0947380005030064e+01 1.4253256786671200e+01 0 0 0
204 0 1 0.0000000000000000e+00 4.2600574249114453e+00 7.2209120376359759e-01 7.7268299865965719e+00 0 0 0
494 0 1 0.0000000000000000e+00 2.1119239099307244e+01 1.4334562963919904e+01 1.4190680989082109e+01 0 0 0
206 0 1 0.0000000000000000e+00 8.0645417289109904e+00 5.6392872245687475e-01 7.7251486900767805e+00 0 0 0
493 0 1 0.0000000000000000e+00 1.9434546693529356e+01 1.2916351954214511e+01 1.2210658259247820e+01 0 0 0
208 0 1 0.0000000000000000e+00 1.1356833762567097e+01 8.3220539337456301e-01 7.8571604441862561e+00 0 0 0
71 0 1 0.0000000000000000e+00 1.6336449228885108e+01 9.6713537976063755e+00 -8.1855038916353373e-02 0 0 0
210 0 1 0.0000000000000000e+00 1.4363868698083184e+01 9.4872251600343094e-01 7.8267078001110519e+00 0 0 0
541 0 1 0.0000000000000000e+00 -1.6770888747389434e-01 6.3596776624018494e+00 1.5778504637596571e+01 0 0 0
212 0 1 0.0000000000000000e+00 1.7466435483731736e+01 9.6853102318067830e-01 8.3456904498494460e+00 0 0 0
492 0 1 0.0000000000000000e+00 1.7862667535745139e+01 1.4192565449174117e+01 1.3900009793506763e+01 0 0 0
214 0 1 0.0000000000000000e+00 2.0695115466489824e+01 6.3852663956840017e-01 8.0362837543051366e+00 0 0 0
491 0 1 0.0000000000000000e+00 1.6020632757271279e+01 1.2679169671657396e+01 1.2482767183184100e+01 0 0 0
216 0 1 0.0000000000000000e+00 2.3804191312457846e+01 7.8783164235815706e-01 8.0543511314860066e+00 0 0 0
1401 0 1 0.0000000000000000e+00 -4.8623214832670569e-01 1.5573490034570332e+01 1.2263303299045802e+01 0 0 0
218 0 1 0.0000000000000000e+00 2.7163201652832392e+01 7.9383486459319386e-01 8.1174517732874385e+00 0 0 0
490 0 1 0.0000000000000000e+00 1.4347358009277874e+01 1.4682834997505402e+01 1.3752842853794370e+01 0 0 0
220 0 1 0.0000000000000000e+00 3.1038196121654806e+01 1.1232288428109682e+00 8.3631825448908330e+00 0 0 0
221 0 1 0.0000000000000000e+00 -5.1215106373225772e-01 2.8103122095269346e+00 6.1830635008482400e+00 0 0 0
222 0 1 0.0000000000000000e+00 1.1510469655801765e+00 4.6427950912862403e+00 7.7424482609092422e+00 0 0 0
223 0 1 0.0000000000000000e+00 2.3519755752745946e+00 2.9433331778085154e+00 6.0721390766418430e+00 0 0 0
224 0 1 0.0000000000000000e+00 4.5653068605639211e+00 4.1799170280666420e+00 7.2233127549810492e+00 0 0 0
225 0 1 0.0000000000000000e+00 6.1412465096375177e+00 2.2035172287173146e+00 6.2810846256726718e+00 0 0 0
226 0 1 0.0000000000000000e+00 7.5691148646411293e+00 4.2723204993484760e+00 7.5194907998108302e+00 0 0 0
227 0 1 0.0000000000000000e+00 9.4938026689470192e+00 2.6194823490290062e+00 5.7544049986470052e+00 0 0 0
228 0 1 0.0000000000000000e+00 1.0769402117807317e+01 4.4193956912783792e+00 7.5385595788561464e+00 0 0 0
229 0 1 0.0000000000000000e+00 1.2788345425379562e+01 2.6758457474622142e+00 6.3373311121272904e+00 0 0 0
230 0 1 0.0000000000000000e+00 1.4221446088882988e+01 4.5120106077518232e+00 7.8417321852480981e+00 0 0 0
231 0 1 0.0000000000000000e+00 1.6321580405666289e+01 1.9440508124250457e+00 6.3290270891988536e+00 0 0 0
232 0 1 0.0000000000000000e+00 1.7176695322632490e+01 4.1965284021337368e+00 7.4906759396932667e+00 0 0 0
233 0 1 0.0000000000000000e+00 1.8964519399193563e+01 2.1208089066377798e+00 6.1107730414376453e+00 0 0 0
234 0 1 0.0000000000000000e+00 2.0157808933719721e+01 3.8556929091902195e+00 7.6653947961736737e+00 0 0 0
235 0 1 0.0000000000000000e+00 2.2064189680087352e+01 2.5703209439730728e+00 6.1004493743680177e+00 0 0 0
236 0 1 0.0000000000000000e+00 2.3671690683924361e+01 3.8972200730708737e+00 7.6640230013131827e+00 0 0 0
237 0 1 0.0000000000000000e+00 2.5401926677844038e+01 2.4209540495346471e+00 6.4673672783075897e+00 0 0 0
238 0 1 0.0000000000000000e+00 2.7195623541997485e+01 3.7743727037017685e+00 8.0920082043360626e+00 0 0 0
239 0 1 0.0000000000000000e+00 2.9066326846704122e+01 2.7267038395507242e+00 6.7923354085119696e+00 0 0 0
240 0 1 0.0000000000000000e+00 3.0946513028262721e+01 4.3522642246534602e+00 8.1371432045486625e+00 0 0 0
241 0 1 0.0000000000000000e+00 3.2491653532439507e+01 5.8728064157556821e+00 5.8589608783524980e+00 -1 0 0
242 0 1 0.0000000000000000e+00 1.1902698087281416e+00 7.4051320881838398e+00 7.5455148450851901e+00 0 0 0
243 0 1 0.0000000000000000e+00 2.6840669317450883e+00 5.7139303231975296e+00 5.6812857830865218e+00 0 0 0
244 0 1 0.0000000000000000e+00 4.2501777129803697e+00 7.6851579847895195e+00 7.0576033550655577e+00 0 0 0
245 0 1 0.0000000000000000e+00 6.4939568522653461e+00 5.9979948436461354e+00 5.9721715780849181e+00 0 0 0
246 0 1 0.0000000000000000e+00 8.2753402809933956e+00 7.5340654309824320e+00 7.5568703387362621e+00 0 0 0
247 0 1 0.0000000000000000e+00 9.2452105409226419e+00 5.7864941550654478e+00 5.7375628399964205e+00 0 0 0
248 0 1 0.0000000000000000e+00 1.1280221328395411e+01 7.6458810546585916e+00 7.1463551950401669e+00 0 0 0
249 0 1 0.0000000000000000e+00 1.2632255549331200e+01 5.7650559449239438e+00 5.8270500788096173e+00 0 0 0
250 0 1 0.0000000000000000e+00 1.4456680372345398e+01 7.8310680544470799e+00 7.3285162876038772e+00 0 0 0
251 0 1 0.0000000000000000e+00 1.5468873485648311e+01 5.8462118146898350e+00 5.6702789327117431e+00 0 0 0
252 0 1 0.0000000000000000e+00 1.7293308570580265e+01 7.5410351733485754e+00 6.9019799227312193e+00 0 0 0
253 0 1 0.0000000000000000e+00 1.9453518354890988e+01 5.8056490054253764e+00 5.7901777203438174e+00 0 0 0
254 0 1 0.0000000000000000e+00 2.0790496800943764e+01 7.8072072910624808e+00 7.1558687224318609e+00 0 0 0
255 0 1 0.0000000000000000e+00 2.1980104313906629e+01 5.3507192386823945e+00 5.8308169148533278e+00 0 0 0
256 0 1 0.0000000000000000e+00 2.3712064196540140e+01 7.1444500380620459e+00 7.6172441882936113e+00 0 0 0
257 0 1 0.0000000000000000e+00 2.5573686378350068e+01 5.2859337661054449e+00 6.3638239689924738e+00 0 0 0
258 0 1 0.0000000000000000e+00 2.7369300119307674e+01 7.5695657265581779e+00 7.4033713234690710e+00 0 0 0
259 0 1 0.0000000000000000e+00 2.8754812862533861e+01 5.5353976190628424e+00 6.4273634443826522e+00 0 0 0
260 0 1 0.0000000000000000e+00 3.0270024143209127e+01 7.1995581879887451e+00 7.4831117994706524e+00 0 0 0
261 0 1 0.0000000000000000e+00 3.2138013532820558e+01 9.0032318492140657e+00 5.7569209533560768e+00 -1 0 0
262 0 1 0.0000000000000000e+00 1.0844444597206797e+00 1.0402018219648179e+01 7.6914109579984640e+00 0 0 0
263 0 1 0.0000000000000000e+00 2.5612148644454158e+00 8.8679301755831101e+00 5.8758373940551634e+00 0 0 0
264 0 1 0.0000000000000000e+00 4.5427065093997516e+00 1.1453970965263050e+01 7.1603980571045538e+00 0 0 0
265 0 1 0.0000000000000000e+00 6.5320550453090469e+00 9.0511178960606831e+00 5.8504678029066888e+00 0 0 0
266 0 1 0.0000000000000000e+00 7.8016272650188441e+00 1.1000864723991816e+01 7.5902454887080637e+00 0 0 0
267 0 1 0.0000000000000000e+00 9.4156251426584792e+00 9.4178873088677513e+00 5.9472930246556457e+00 0 0 0
268 0 1 0.0000000000000000e+00 1.1431388367844709e+01 1.1439910398476446e+01 7.2199299918765352e+00 0 0 0
269 0 1 0.0000000000000000e+00 1.2713768136963875e+01 9.4126016653694133e+00 5.9032084468887138e+00 0 0 0
270 0 1 0.0000000000000000e+00 1.4185890860162036e+01 1.1195826317106208e+01 7.0061059309236100e+00 0 0 0
271 0 1 0.0000000000000000e+00 1.5739318250119632e+01 9.5057116027555129e+00 5.7852064354788393e+00 0 0 0
272 0 1 0.0000000000000000e+00 1.7346390036910918e+01 1.1244939531063080e+01 7.2817501056199916e+00 0 0 0
273 0 1 0.0000000000000000e+00 1.9205419781690438e+01 9.3196821683308126e+00 5.7843695170737206e+00 0 0 0
274 0 1 0.0000000000000000e+00 2.0845329833972094e+01 1.0609553502780635e+01 7.2876960852890971e+00 0 0 0
275 0 1 0.0000000000000000e+00 2.2682101557281626e+01 9.4527164473739393e+00 5.7122938045758165e+00 0 0 0
276 0 1 0.0000000000000000e+00 2.3919102967101395e+01 1.1232614162000884e+01 7.5167966685163634e+00 0 0 0
277 0 1 0.0000000000000000e+00 2.5384652807003079e+01 9.1542320938676340e+00 6.0605904489974041e+00 0 0 0
278 0 1 0.0000000000000000e+00 2.7410571925657962e+01 1.0576473322398897e+01 7.5451920884835229e+00 0 0 0
279 0 1 0.0000000000000000e+00 2.9348640550371456e+01 9.5102371655225184e+00 5.9858881541888262e+00 0 0 0